 DBCSR| CPU Multiplication driver                                           BLAS (U)
 DBCSR| Multrec recursion limit                                              512 (U)
 DBCSR| Multiplication stack size                                           1000 (D)
 DBCSR| Maximum elements for images                                    UNLIMITED (U)
 DBCSR| Multiplicative factor virtual images                                   1 (U)
 DBCSR| Use multiplication densification                                       T (D)
 DBCSR| Multiplication size stacks                                             3 (U)
 DBCSR| Use memory pool for CPU allocation                                     F (U)
 DBCSR| OMP: Current number of threads                                         2
 DBCSR| OMP: Max number of threads                                             2
 DBCSR| Split modifier for TAS multiplication algorithm                  1.0E+00 (U)


  **** **** ******  **  PROGRAM STARTED AT               2026-01-25 22:31:05.034
 ***** ** ***  *** **   PROGRAM STARTED ON                 MacBook-Air-950.local
 **    ****   ******    PROGRAM STARTED BY                       mackenziehenley
 ***** **    ** ** **   PROGRAM PROCESS ID                                 23717
  **** **  *******  **  PROGRAM STARTED IN   /Users/mackenziehenley/cp2k/Methane

 CP2K| version string:                                       CP2K version 2025.1
 CP2K| source code revision number:                                             
 CP2K| cp2kflags: omp libint fftw3 libxc no_statm_access                        
 CP2K| is freely available from                            https://www.cp2k.org/
 CP2K| Program compiled at                                   2025-01-01 12:26:53
 CP2K| Program compiled on                                                      
 CP2K| Program compiled for                                                arm64
 CP2K| Data directory path      /opt/homebrew/Cellar/cp2k/2025.1/share/cp2k/data
 CP2K| Input file name                                            methane_md.inp

 GLOBAL| Force Environment number                                              1
 GLOBAL| Basis set file name                                    ./GTH_BASIS_SETS
 GLOBAL| Potential file name                                    ./GTH_POTENTIALS
 GLOBAL| MM Potential file name                                     MM_POTENTIAL
 GLOBAL| Coordinate file name                                      __STD_INPUT__
 GLOBAL| Method name                                                        CP2K
 GLOBAL| Project name                                                 methane_md
 GLOBAL| Run type                                                             MD
 GLOBAL| FFT library                                                       FFTW3
 GLOBAL| Diagonalization library                                       ScaLAPACK
 GLOBAL| DGEMM library                                                      BLAS
 GLOBAL| Orthonormality check for eigenvectors                          DISABLED
 GLOBAL| Matrix multiplication library                                 ScaLAPACK
 GLOBAL| All-to-all communication in single precision                          F
 GLOBAL| FFTs using library dependent lengths                                  F
 GLOBAL| Grid backend                                                       AUTO
 GLOBAL| Global print level                                                  LOW
 GLOBAL| MPI I/O enabled                                                       T
 GLOBAL| Total number of message passing processes                             1
 GLOBAL| Number of threads for this process                                    2
 GLOBAL| This output is from process                                           0
 GLOBAL| OpenMP stack size per thread (OMP_STACKSIZE)                    default
 GLOBAL| CPU model name                                                  UNKNOWN
 GLOBAL| CPUID                                                              2000

 MEMORY| system memory details [Kb]
 MEMORY|                        rank 0           min           max       average
 MEMORY| MemTotal                    0             0             0             0
 MEMORY| MemFree                     0             0             0             0
 MEMORY| Buffers                     0             0             0             0
 MEMORY| Cached                      0             0             0             0
 MEMORY| Slab                        0             0             0             0
 MEMORY| SReclaimable                0             0             0             0
 MEMORY| MemLikelyFree               0             0             0             0


 GENERATE|  Preliminary Number of Bonds generated:                             0
 GENERATE|  Achieved consistency in connectivity generation.

 *******************************************************************************
 *******************************************************************************
 **                                                                           **
 **     #####                         ##              ##                      **
 **    ##   ##            ##          ##              ##                      **
 **   ##     ##                       ##            ######                    **
 **   ##     ##  ##   ##  ##   #####  ##  ##   ####   ##    #####    #####    **
 **   ##     ##  ##   ##  ##  ##      ## ##   ##      ##   ##   ##  ##   ##   **
 **   ##  ## ##  ##   ##  ##  ##      ####     ###    ##   ######   ######    **
 **    ##  ###   ##   ##  ##  ##      ## ##      ##   ##   ##       ##        **
 **     #######   #####   ##   #####  ##  ##  ####    ##    #####   ##        **
 **           ##                                                    ##        **
 **                                                                           **
 **                                                ... make the atoms dance   **
 **                                                                           **
 **            Copyright (C) by CP2K developers group (2000-2025)             **
 **                      J. Chem. Phys. 152, 194103 (2020)                    **
 **                                                                           **
 *******************************************************************************


 TOTAL NUMBERS AND MAXIMUM NUMBERS

  Total number of            - Atomic kinds:                                   2
                             - Atoms:                                          5
                             - Shell sets:                                    10
                             - Shells:                                        17
                             - Primitive Cartesian functions:                 25
                             - Cartesian basis functions:                     34
                             - Spherical basis functions:                     33

  Maximum angular momentum of- Orbital basis functions:                        2
                             - Local part of the GTH pseudopotential:          2
                             - Non-local part of the GTH pseudopotential:      0


 SCF PARAMETERS         Density guess:                                    ATOMIC
                        --------------------------------------------------------
                        max_scf:                                              20
                        max_scf_history:                                       0
                        max_diis:                                              4
                        --------------------------------------------------------
                        eps_scf:                                        1.00E-05
                        eps_scf_history:                                0.00E+00
                        eps_diis:                                       1.00E-01
                        eps_eigval:                                     1.00E-05
                        --------------------------------------------------------
                        level_shift [a.u.]:                             0.000000
                        --------------------------------------------------------
                        No outer SCF

 MD_PAR| Molecular dynamics protocol (MD input parameters)
 MD_PAR| Ensemble type                                                       NVE
 MD_PAR| Number of time steps                                               1000
 MD_PAR| Time step [fs]                                                 0.500000
 MD_PAR| Temperature [K]                                              300.000000
 MD_PAR| Temperature tolerance [K]                                      0.000000
 MD_PAR| Print MD information every                                    1 step(s)
 MD_PAR| File type   Print frequency [steps]                          File names
 MD_PAR| Coordinates          1                             methane_md-pos-1.xyz
 MD_PAR| Velocities           1                             methane_md-vel-1.xyz
 MD_PAR| Energies             1                                methane_md-1.ener
 MD_PAR| Dump                20                             methane_md-1.restart

 ROT| Rotational analysis information
 ROT| Principal axes and moments of inertia [a.u.]
 ROT|                           1                   2                   3
 ROT| Eigenvalues      2.08335656561E+04   2.08335656561E+04   2.08335656561E+04
 ROT|      x              0.456782747095     -0.889578283209      0.000000000000
 ROT|      y             -0.889578283209     -0.456782747095      0.000000000000
 ROT|      z              0.000000000000      0.000000000000      1.000000000000
 ROT| Number of rotovibrational vectors                                        6

 DOF| Calculation of degrees of freedom
 DOF| Number of atoms                                                          5
 DOF| Number of intramolecular constraints                                     0
 DOF| Number of intermolecular constraints                                     0
 DOF| Invariants (translations + rotations)                                    3
 DOF| Degrees of freedom                                                      12

 DOF| Restraints information
 DOF| Number of intramolecular restraints                                      0
 DOF| Number of intermolecular restraints                                      0

 MD_VEL| Velocities initialization
 MD_VEL| Initial temperature [K]                                      300.000000
 MD_VEL| COM velocity             0.0000000000    -0.0000000000    -0.0000000000

 Number of electrons:                                                          8
 Number of occupied orbitals:                                                  4
 Number of molecular orbitals:                                                 4

 Number of orbital functions:                                                 33
 Number of independent orbital functions:                                     33

 Extrapolation method: initial_guess


 SCF WAVEFUNCTION OPTIMIZATION

  ----------------------------------- OT ---------------------------------------
  Minimizer      : DIIS                : direct inversion
                                         in the iterative subspace
                                         using   7 DIIS vectors
                                         safer DIIS on
  Preconditioner : FULL_SINGLE_INVERSE : inversion of 
                                         H + eS - 2*(Sc)(c^T*H*c+const)(Sc)^T
  Precond_solver : DEFAULT
  stepsize       :    0.08000000                  energy_gap     :    0.08000000
  eps_taylor     :   0.10000E-15                  max_taylor     :             4
  ----------------------------------- OT ---------------------------------------

  Step     Update method      Time    Convergence         Total energy    Change
  ------------------------------------------------------------------------------
     1 OT DIIS     0.80E-01    0.2     0.37676025        -6.9820565934 -6.98E+00
     2 OT DIIS     0.80E-01    0.2     0.18450892        -7.9065431094 -9.24E-01
     3 OT DIIS     0.80E-01    0.2     0.06934900        -8.0235491985 -1.17E-01
     4 OT DIIS     0.80E-01    0.2     0.04002433        -8.0462882091 -2.27E-02
     5 OT DIIS     0.80E-01    0.2     0.03606931        -8.0519450826 -5.66E-03
     6 OT DIIS     0.80E-01    0.2     0.02855617        -8.0596788361 -7.73E-03
     7 OT DIIS     0.80E-01    0.2     0.00794388        -8.0623667104 -2.69E-03
     8 OT DIIS     0.80E-01    0.2     0.00551189        -8.0627550064 -3.88E-04
     9 OT DIIS     0.80E-01    0.2     0.00082253        -8.0628760723 -1.21E-04
    10 OT DIIS     0.80E-01    0.2     0.00031591        -8.0628832950 -7.22E-06
    11 OT DIIS     0.80E-01    0.2     0.00021172        -8.0628844996 -1.20E-06
    12 OT DIIS     0.80E-01    0.2     0.00005310        -8.0628854430 -9.43E-07
    13 OT DIIS     0.80E-01    0.2     0.00003393        -8.0628854804 -3.73E-08
    14 OT DIIS     0.80E-01    0.2     0.00001605        -8.0628855009 -2.06E-08
    15 OT DIIS     0.80E-01    0.2     0.00000558        -8.0628855057 -4.74E-09

  *** SCF run converged in    15 steps ***


  Electronic density on regular grids:         -7.9999999840        0.0000000160
  Core density on regular grids:                7.9999998065       -0.0000001935
  Total charge density on r-space grids:       -0.0000001775
  Total charge density g-space grids:          -0.0000001775

  Overlap energy of the core charge distribution:               0.00000121246798
  Self energy of the core charge distribution:                -18.97690376224277
  Core Hamiltonian energy:                                      6.18611564310634
  Hartree energy:                                               7.91615401137693
  Exchange-correlation energy:                                 -3.18825261037651

  Total energy:                                                -8.06288550566803

 ENERGY| Total FORCE_EVAL ( QS ) energy [hartree]             -8.062885506170485

 MD_INI| MD initialization
 MD_INI| Potential energy [hartree]                          -0.806288550617E+01
 MD_INI| Kinetic energy [hartree]                             0.570026761792E-02
 MD_INI| Temperature [K]                                              300.000000
 MD_INI| Cell volume [bohr^3]                                 6.748334583090E+03
 MD_INI| Cell volume [ang^3]                                  1.000000000000E+03
 MD_INI| Cell lengths [bohr]      1.88972613E+01  1.88972613E+01  1.88972613E+01
 MD_INI| Cell lengths [ang]       1.00000000E+01  1.00000000E+01  1.00000000E+01
 MD_INI| Cell angles [deg]        9.00000000E+01  9.00000000E+01  9.00000000E+01

 Number of electrons:                                                          8
 Number of occupied orbitals:                                                  4
 Number of molecular orbitals:                                                 4

 Number of orbital functions:                                                 33
 Number of independent orbital functions:                                     33

 Extrapolation method: ASPC


 SCF WAVEFUNCTION OPTIMIZATION

  ----------------------------------- OT ---------------------------------------
  Minimizer      : DIIS                : direct inversion
                                         in the iterative subspace
                                         using   7 DIIS vectors
                                         safer DIIS on
  Preconditioner : FULL_SINGLE_INVERSE : inversion of 
                                         H + eS - 2*(Sc)(c^T*H*c+const)(Sc)^T
  Precond_solver : DEFAULT
  stepsize       :    0.08000000                  energy_gap     :    0.08000000
  eps_taylor     :   0.10000E-15                  max_taylor     :             4
  ----------------------------------- OT ---------------------------------------

  Step     Update method      Time    Convergence         Total energy    Change
  ------------------------------------------------------------------------------
     1 OT DIIS     0.80E-01    0.2     0.00207354        -8.0622924986 -8.06E+00
     2 OT DIIS     0.80E-01    0.2     0.00144704        -8.0623309253 -3.84E-05
     3 OT DIIS     0.80E-01    0.2     0.00036126        -8.0623686475 -3.77E-05
     4 OT DIIS     0.80E-01    0.2     0.00010095        -8.0623710148 -2.37E-06
     5 OT DIIS     0.80E-01    0.2     0.00002351        -8.0623711860 -1.71E-07
     6 OT DIIS     0.80E-01    0.2     0.00000687        -8.0623711958 -9.80E-09

  *** SCF run converged in     6 steps ***


  Electronic density on regular grids:         -7.9999999833        0.0000000167
  Core density on regular grids:                7.9999997984       -0.0000002016
  Total charge density on r-space grids:       -0.0000001849
  Total charge density g-space grids:          -0.0000001849

  Overlap energy of the core charge distribution:               0.00000134139848
  Self energy of the core charge distribution:                -18.97690376224277
  Core Hamiltonian energy:                                      6.19580320164773
  Hartree energy:                                               7.91009434125870
  Exchange-correlation energy:                                 -3.19136631781979

  Total energy:                                                -8.06237119575765

 ENERGY| Total FORCE_EVAL ( QS ) energy [hartree]             -8.062371196325218

 MD| ***************************************************************************
 MD| Step number                                                               1
 MD| Time [fs]                                                          0.500000
 MD| Conserved quantity [hartree]                            -0.805717744637E+01
 MD| ---------------------------------------------------------------------------
 MD|                                          Instantaneous             Averages
 MD| CPU time per MD step [s]                      4.587612             4.587612
 MD| Energy drift per atom [K]           0.492114573116E+00   0.000000000000E+00
 MD| Potential energy [hartree]         -0.806237119633E+01  -0.806237119633E+01
 MD| Kinetic energy [hartree]            0.519374995255E-02   0.519374995255E-02
 MD| Temperature [K]                             273.342427           273.342427
 MD| ***************************************************************************

 Number of electrons:                                                          8
 Number of occupied orbitals:                                                  4
 Number of molecular orbitals:                                                 4

 Number of orbital functions:                                                 33
 Number of independent orbital functions:                                     33

 Extrapolation method: ASPC


 SCF WAVEFUNCTION OPTIMIZATION

  ----------------------------------- OT ---------------------------------------
  Minimizer      : DIIS                : direct inversion
                                         in the iterative subspace
                                         using   7 DIIS vectors
                                         safer DIIS on
  Preconditioner : FULL_SINGLE_INVERSE : inversion of 
                                         H + eS - 2*(Sc)(c^T*H*c+const)(Sc)^T
  Precond_solver : DEFAULT
  stepsize       :    0.08000000                  energy_gap     :    0.08000000
  eps_taylor     :   0.10000E-15                  max_taylor     :             4
  ----------------------------------- OT ---------------------------------------

  Step     Update method      Time    Convergence         Total energy    Change
  ------------------------------------------------------------------------------
     1 OT DIIS     0.80E-01    0.2     0.00033209        -8.0614273437 -8.06E+00
     2 OT DIIS     0.80E-01    0.2     0.00020558        -8.0614282783 -9.35E-07
     3 OT DIIS     0.80E-01    0.2     0.00006405        -8.0614288953 -6.17E-07
     4 OT DIIS     0.80E-01    0.2     0.00001507        -8.0614289630 -6.77E-08
     5 OT DIIS     0.80E-01    0.2     0.00000257        -8.0614289674 -4.39E-09

  *** SCF run converged in     5 steps ***


  Electronic density on regular grids:         -7.9999999859        0.0000000141
  Core density on regular grids:                7.9999998309       -0.0000001691
  Total charge density on r-space grids:       -0.0000001549
  Total charge density g-space grids:          -0.0000001549

  Overlap energy of the core charge distribution:               0.00000152369811
  Self energy of the core charge distribution:                -18.97690376224277
  Core Hamiltonian energy:                                      6.19995874784324
  Hartree energy:                                               7.90803125961355
  Exchange-correlation energy:                                 -3.19251673629187

  Total energy:                                                -8.06142896737975

 ENERGY| Total FORCE_EVAL ( QS ) energy [hartree]             -8.061428967493327

 MD| ***************************************************************************
 MD| Step number                                                               2
 MD| Time [fs]                                                          1.000000
 MD| Conserved quantity [hartree]                            -0.805715325842E+01
 MD| ---------------------------------------------------------------------------
 MD|                                          Instantaneous             Averages
 MD| CPU time per MD step [s]                      1.164086             2.875849
 MD| Energy drift per atom [K]           0.201970277770E+01   0.100985138885E+01
 MD| Potential energy [hartree]         -0.806142896749E+01  -0.806190008191E+01
 MD| Kinetic energy [hartree]            0.427570906949E-02   0.473472951102E-02
 MD| Temperature [K]                             225.026754           249.184591
 MD| ***************************************************************************

 Number of electrons:                                                          8
 Number of occupied orbitals:                                                  4
 Number of molecular orbitals:                                                 4

 Number of orbital functions:                                                 33
 Number of independent orbital functions:                                     33

 Extrapolation method: ASPC


 SCF WAVEFUNCTION OPTIMIZATION

  ----------------------------------- OT ---------------------------------------
  Minimizer      : DIIS                : direct inversion
                                         in the iterative subspace
                                         using   7 DIIS vectors
                                         safer DIIS on
  Preconditioner : FULL_SINGLE_INVERSE : inversion of 
                                         H + eS - 2*(Sc)(c^T*H*c+const)(Sc)^T
  Precond_solver : DEFAULT
  stepsize       :    0.08000000                  energy_gap     :    0.08000000
  eps_taylor     :   0.10000E-15                  max_taylor     :             4
  ----------------------------------- OT ---------------------------------------

  Step     Update method      Time    Convergence         Total energy    Change
  ------------------------------------------------------------------------------
     1 OT DIIS     0.80E-01    0.2     0.00034765        -8.0604365544 -8.06E+00
     2 OT DIIS     0.80E-01    0.2     0.00022585        -8.0604375998 -1.05E-06
     3 OT DIIS     0.80E-01    0.2     0.00006935        -8.0604384035 -8.04E-07
     4 OT DIIS     0.80E-01    0.2     0.00002015        -8.0604384875 -8.39E-08
     5 OT DIIS     0.80E-01    0.2     0.00000346        -8.0604384949 -7.40E-09

  *** SCF run converged in     5 steps ***


  Electronic density on regular grids:         -7.9999999892        0.0000000108
  Core density on regular grids:                7.9999998722       -0.0000001278
  Total charge density on r-space grids:       -0.0000001170
  Total charge density g-space grids:          -0.0000001170

  Overlap energy of the core charge distribution:               0.00000169287457
  Self energy of the core charge distribution:                -18.97690376224277
  Core Hamiltonian energy:                                      6.19744317693891
  Hartree energy:                                               7.91042389904444
  Exchange-correlation energy:                                 -3.19140350147582

  Total energy:                                                -8.06043849486068

 ENERGY| Total FORCE_EVAL ( QS ) energy [hartree]             -8.060438495062215

 MD| ***************************************************************************
 MD| Step number                                                               3
 MD| Time [fs]                                                          1.500000
 MD| Conserved quantity [hartree]                            -0.805712570743E+01
 MD| ---------------------------------------------------------------------------
 MD|                                          Instantaneous             Averages
 MD| CPU time per MD step [s]                      1.169655             2.307118
 MD| Energy drift per atom [K]           0.375968416509E+01   0.192646231426E+01
 MD| Potential energy [hartree]         -0.806043849506E+01  -0.806141288629E+01
 MD| Kinetic energy [hartree]            0.331278763715E-02   0.426074888640E-02
 MD| Temperature [K]                             174.349058           224.239413
 MD| ***************************************************************************

 Number of electrons:                                                          8
 Number of occupied orbitals:                                                  4
 Number of molecular orbitals:                                                 4

 Number of orbital functions:                                                 33
 Number of independent orbital functions:                                     33

 Extrapolation method: ASPC


 SCF WAVEFUNCTION OPTIMIZATION

  ----------------------------------- OT ---------------------------------------
  Minimizer      : DIIS                : direct inversion
                                         in the iterative subspace
                                         using   7 DIIS vectors
                                         safer DIIS on
  Preconditioner : FULL_SINGLE_INVERSE : inversion of 
                                         H + eS - 2*(Sc)(c^T*H*c+const)(Sc)^T
  Precond_solver : DEFAULT
  stepsize       :    0.08000000                  energy_gap     :    0.08000000
  eps_taylor     :   0.10000E-15                  max_taylor     :             4
  ----------------------------------- OT ---------------------------------------

  Step     Update method      Time    Convergence         Total energy    Change
  ------------------------------------------------------------------------------
     1 OT DIIS     0.80E-01    0.2     0.00030801        -8.0598210296 -8.06E+00
     2 OT DIIS     0.80E-01    0.2     0.00020173        -8.0598218531 -8.24E-07
     3 OT DIIS     0.80E-01    0.2     0.00006131        -8.0598225032 -6.50E-07
     4 OT DIIS     0.80E-01    0.2     0.00001790        -8.0598225691 -6.58E-08
     5 OT DIIS     0.80E-01    0.2     0.00000311        -8.0598225747 -5.69E-09

  *** SCF run converged in     5 steps ***


  Electronic density on regular grids:         -7.9999999911        0.0000000089
  Core density on regular grids:                7.9999998961       -0.0000001039
  Total charge density on r-space grids:       -0.0000000950
  Total charge density g-space grids:          -0.0000000950

  Overlap energy of the core charge distribution:               0.00000173884522
  Self energy of the core charge distribution:                -18.97690376224277
  Core Hamiltonian energy:                                      6.18745673650452
  Hartree energy:                                               7.91749118098630
  Exchange-correlation energy:                                 -3.18786846883498

  Total energy:                                                -8.05982257474172

 ENERGY| Total FORCE_EVAL ( QS ) energy [hartree]             -8.059822574905152

 MD| ***************************************************************************
 MD| Step number                                                               4
 MD| Time [fs]                                                          2.000000
 MD| Conserved quantity [hartree]                            -0.805711063461E+01
 MD| ---------------------------------------------------------------------------
 MD|                                          Instantaneous             Averages
 MD| CPU time per MD step [s]                      1.168815             2.022542
 MD| Energy drift per atom [K]           0.471160696338E+01   0.262274847654E+01
 MD| Potential energy [hartree]         -0.805982257491E+01  -0.806101530845E+01
 MD| Kinetic energy [hartree]            0.271194029870E-02   0.387354673947E-02
 MD| Temperature [K]                             142.726999           203.861310
 MD| ***************************************************************************

 Number of electrons:                                                          8
 Number of occupied orbitals:                                                  4
 Number of molecular orbitals:                                                 4

 Number of orbital functions:                                                 33
 Number of independent orbital functions:                                     33

 Extrapolation method: ASPC


 SCF WAVEFUNCTION OPTIMIZATION

  ----------------------------------- OT ---------------------------------------
  Minimizer      : DIIS                : direct inversion
                                         in the iterative subspace
                                         using   7 DIIS vectors
                                         safer DIIS on
  Preconditioner : FULL_SINGLE_INVERSE : inversion of 
                                         H + eS - 2*(Sc)(c^T*H*c+const)(Sc)^T
  Precond_solver : DEFAULT
  stepsize       :    0.08000000                  energy_gap     :    0.08000000
  eps_taylor     :   0.10000E-15                  max_taylor     :             4
  ----------------------------------- OT ---------------------------------------

  Step     Update method      Time    Convergence         Total energy    Change
  ------------------------------------------------------------------------------
     1 OT DIIS     0.80E-01    0.2     0.00025793        -8.0598120444 -8.06E+00
     2 OT DIIS     0.80E-01    0.2     0.00017071        -8.0598126247 -5.80E-07
     3 OT DIIS     0.80E-01    0.2     0.00005010        -8.0598130987 -4.74E-07
     4 OT DIIS     0.80E-01    0.2     0.00001514        -8.0598131426 -4.39E-08
     5 OT DIIS     0.80E-01    0.2     0.00000262        -8.0598131466 -4.03E-09

  *** SCF run converged in     5 steps ***


  Electronic density on regular grids:         -7.9999999916        0.0000000084
  Core density on regular grids:                7.9999999006       -0.0000000994
  Total charge density on r-space grids:       -0.0000000910
  Total charge density g-space grids:          -0.0000000910

  Overlap energy of the core charge distribution:               0.00000159501685
  Self energy of the core charge distribution:                -18.97690376224277
  Core Hamiltonian energy:                                      6.17021400147507
  Hartree energy:                                               7.92892315807662
  Exchange-correlation energy:                                 -3.18204813893366

  Total energy:                                                -8.05981314660789

 ENERGY| Total FORCE_EVAL ( QS ) energy [hartree]             -8.059813146724515

 MD| ***************************************************************************
 MD| Step number                                                               5
 MD| Time [fs]                                                          2.500000
 MD| Conserved quantity [hartree]                            -0.805711641702E+01
 MD| ---------------------------------------------------------------------------
 MD|                                          Instantaneous             Averages
 MD| CPU time per MD step [s]                      1.166137             1.851261
 MD| Energy drift per atom [K]           0.434641873854E+01   0.296748252894E+01
 MD| Potential energy [hartree]         -0.805981314672E+01  -0.806077487610E+01
 MD| Kinetic energy [hartree]            0.269672969970E-02   0.363818333152E-02
 MD| Temperature [K]                             141.926479           191.474343
 MD| ***************************************************************************

 Number of electrons:                                                          8
 Number of occupied orbitals:                                                  4
 Number of molecular orbitals:                                                 4

 Number of orbital functions:                                                 33
 Number of independent orbital functions:                                     33

 Extrapolation method: ASPC


 SCF WAVEFUNCTION OPTIMIZATION

  ----------------------------------- OT ---------------------------------------
  Minimizer      : DIIS                : direct inversion
                                         in the iterative subspace
                                         using   7 DIIS vectors
                                         safer DIIS on
  Preconditioner : FULL_SINGLE_INVERSE : inversion of 
                                         H + eS - 2*(Sc)(c^T*H*c+const)(Sc)^T
  Precond_solver : DEFAULT
  stepsize       :    0.08000000                  energy_gap     :    0.08000000
  eps_taylor     :   0.10000E-15                  max_taylor     :             4
  ----------------------------------- OT ---------------------------------------

  Step     Update method      Time    Convergence         Total energy    Change
  ------------------------------------------------------------------------------
     1 OT DIIS     0.80E-01    0.2     0.00020870        -8.0603254648 -8.06E+00
     2 OT DIIS     0.80E-01    0.2     0.00014133        -8.0603258490 -3.84E-07
     3 OT DIIS     0.80E-01    0.2     0.00003749        -8.0603261873 -3.38E-07
     4 OT DIIS     0.80E-01    0.2     0.00001134        -8.0603262120 -2.47E-08
     5 OT DIIS     0.80E-01    0.2     0.00000212        -8.0603262142 -2.18E-09

  *** SCF run converged in     5 steps ***


  Electronic density on regular grids:         -7.9999999919        0.0000000081
  Core density on regular grids:                7.9999999029       -0.0000000971
  Total charge density on r-space grids:       -0.0000000889
  Total charge density g-space grids:          -0.0000000889

  Overlap energy of the core charge distribution:               0.00000130606003
  Self energy of the core charge distribution:                -18.97690376224277
  Core Hamiltonian energy:                                      6.14716304015128
  Hartree energy:                                               7.94383139373847
  Exchange-correlation energy:                                 -3.17441819191266

  Total energy:                                                -8.06032621420565

 ENERGY| Total FORCE_EVAL ( QS ) energy [hartree]             -8.060326214282421

 MD| ***************************************************************************
 MD| Step number                                                               6
 MD| Time [fs]                                                          3.000000
 MD| Conserved quantity [hartree]                            -0.805713780743E+01
 MD| ---------------------------------------------------------------------------
 MD|                                          Instantaneous             Averages
 MD| CPU time per MD step [s]                      1.166654             1.737160
 MD| Energy drift per atom [K]           0.299550914834E+01   0.297215363218E+01
 MD| Potential energy [hartree]         -0.806032621428E+01  -0.806070009913E+01
 MD| Kinetic energy [hartree]            0.318840685151E-02   0.356322058485E-02
 MD| Temperature [K]                             167.803008           187.529121
 MD| ***************************************************************************

 Number of electrons:                                                          8
 Number of occupied orbitals:                                                  4
 Number of molecular orbitals:                                                 4

 Number of orbital functions:                                                 33
 Number of independent orbital functions:                                     33

 Extrapolation method: ASPC


 SCF WAVEFUNCTION OPTIMIZATION

  ----------------------------------- OT ---------------------------------------
  Minimizer      : DIIS                : direct inversion
                                         in the iterative subspace
                                         using   7 DIIS vectors
                                         safer DIIS on
  Preconditioner : FULL_SINGLE_INVERSE : inversion of 
                                         H + eS - 2*(Sc)(c^T*H*c+const)(Sc)^T
  Precond_solver : DEFAULT
  stepsize       :    0.08000000                  energy_gap     :    0.08000000
  eps_taylor     :   0.10000E-15                  max_taylor     :             4
  ----------------------------------- OT ---------------------------------------

  Step     Update method      Time    Convergence         Total energy    Change
  ------------------------------------------------------------------------------
     1 OT DIIS     0.80E-01    0.2     0.00014777        -8.0610354874 -8.06E+00
     2 OT DIIS     0.80E-01    0.2     0.00010223        -8.0610356820 -1.95E-07
     3 OT DIIS     0.80E-01    0.2     0.00002406        -8.0610358662 -1.84E-07
     4 OT DIIS     0.80E-01    0.2     0.00000330        -8.0610358771 -1.09E-08

  *** SCF run converged in     4 steps ***


  Electronic density on regular grids:         -7.9999999936        0.0000000064
  Core density on regular grids:                7.9999999233       -0.0000000767
  Total charge density on r-space grids:       -0.0000000703
  Total charge density g-space grids:          -0.0000000703

  Overlap energy of the core charge distribution:               0.00000098669051
  Self energy of the core charge distribution:                -18.97690376224277
  Core Hamiltonian energy:                                      6.12079058975080
  Hartree energy:                                               7.96081506247203
  Exchange-correlation energy:                                 -3.16573875373586

  Total energy:                                                -8.06103587706530

 ENERGY| Total FORCE_EVAL ( QS ) energy [hartree]             -8.061035877246633

 MD| ***************************************************************************
 MD| Step number                                                               7
 MD| Time [fs]                                                          3.500000
 MD| Conserved quantity [hartree]                            -0.805716053051E+01
 MD| ---------------------------------------------------------------------------
 MD|                                          Instantaneous             Averages
 MD| CPU time per MD step [s]                      0.980816             1.629111
 MD| Energy drift per atom [K]           0.156043497994E+01   0.277047953900E+01
 MD| Potential energy [hartree]         -0.806103587725E+01  -0.806074806743E+01
 MD| Kinetic energy [hartree]            0.387534674125E-02   0.360781003576E-02
 MD| Temperature [K]                             203.956042           189.875824
 MD| ***************************************************************************

 Number of electrons:                                                          8
 Number of occupied orbitals:                                                  4
 Number of molecular orbitals:                                                 4

 Number of orbital functions:                                                 33
 Number of independent orbital functions:                                     33

 Extrapolation method: ASPC


 SCF WAVEFUNCTION OPTIMIZATION

  ----------------------------------- OT ---------------------------------------
  Minimizer      : DIIS                : direct inversion
                                         in the iterative subspace
                                         using   7 DIIS vectors
                                         safer DIIS on
  Preconditioner : FULL_SINGLE_INVERSE : inversion of 
                                         H + eS - 2*(Sc)(c^T*H*c+const)(Sc)^T
  Precond_solver : DEFAULT
  stepsize       :    0.08000000                  energy_gap     :    0.08000000
  eps_taylor     :   0.10000E-15                  max_taylor     :             4
  ----------------------------------- OT ---------------------------------------

  Step     Update method      Time    Convergence         Total energy    Change
  ------------------------------------------------------------------------------
     1 OT DIIS     0.80E-01    0.2     0.00010539        -8.0615821031 -8.06E+00
     2 OT DIIS     0.80E-01    0.2     0.00007029        -8.0615822002 -9.71E-08
     3 OT DIIS     0.80E-01    0.2     0.00002174        -8.0615822817 -8.15E-08
     4 OT DIIS     0.80E-01    0.2     0.00000642        -8.0615822901 -8.39E-09

  *** SCF run converged in     4 steps ***


  Electronic density on regular grids:         -7.9999999971        0.0000000029
  Core density on regular grids:                7.9999999653       -0.0000000347
  Total charge density on r-space grids:       -0.0000000318
  Total charge density g-space grids:          -0.0000000318

  Overlap energy of the core charge distribution:               0.00000072805626
  Self energy of the core charge distribution:                -18.97690376224277
  Core Hamiltonian energy:                                      6.09403758966398
  Hartree energy:                                               7.97818954734617
  Exchange-correlation energy:                                 -3.15690639295623

  Total energy:                                                -8.06158229013258

 ENERGY| Total FORCE_EVAL ( QS ) energy [hartree]             -8.061582290857825

 MD| ***************************************************************************
 MD| Step number                                                               8
 MD| Time [fs]                                                          4.000000
 MD| Conserved quantity [hartree]                            -0.805717273125E+01
 MD| ---------------------------------------------------------------------------
 MD|                                          Instantaneous             Averages
 MD| CPU time per MD step [s]                      0.959547             1.545415
 MD| Energy drift per atom [K]           0.789897524374E+00   0.252290678717E+01
 MD| Potential energy [hartree]         -0.806158229086E+01  -0.806085234536E+01
 MD| Kinetic energy [hartree]            0.440955960326E-02   0.370802873170E-02
 MD| Temperature [K]                             232.071189           195.150245
 MD| ***************************************************************************

 Number of electrons:                                                          8
 Number of occupied orbitals:                                                  4
 Number of molecular orbitals:                                                 4

 Number of orbital functions:                                                 33
 Number of independent orbital functions:                                     33

 Extrapolation method: ASPC


 SCF WAVEFUNCTION OPTIMIZATION

  ----------------------------------- OT ---------------------------------------
  Minimizer      : DIIS                : direct inversion
                                         in the iterative subspace
                                         using   7 DIIS vectors
                                         safer DIIS on
  Preconditioner : FULL_SINGLE_INVERSE : inversion of 
                                         H + eS - 2*(Sc)(c^T*H*c+const)(Sc)^T
  Precond_solver : DEFAULT
  stepsize       :    0.08000000                  energy_gap     :    0.08000000
  eps_taylor     :   0.10000E-15                  max_taylor     :             4
  ----------------------------------- OT ---------------------------------------

  Step     Update method      Time    Convergence         Total energy    Change
  ------------------------------------------------------------------------------
     1 OT DIIS     0.80E-01    0.2     0.00009806        -8.0617501346 -8.06E+00
     2 OT DIIS     0.80E-01    0.2     0.00005830        -8.0617502145 -7.99E-08
     3 OT DIIS     0.80E-01    0.2     0.00002123        -8.0617502617 -4.72E-08
     4 OT DIIS     0.80E-01    0.2     0.00000450        -8.0617502694 -7.73E-09

  *** SCF run converged in     4 steps ***


  Electronic density on regular grids:         -8.0000000007       -0.0000000007
  Core density on regular grids:                8.0000000100        0.0000000100
  Total charge density on r-space grids:        0.0000000093
  Total charge density g-space grids:           0.0000000093

  Overlap energy of the core charge distribution:               0.00000055865492
  Self energy of the core charge distribution:                -18.97690376224277
  Core Hamiltonian energy:                                      6.06972124694382
  Hartree energy:                                               7.99422733936991
  Exchange-correlation energy:                                 -3.14879565216133

  Total energy:                                                -8.06175026943545

 ENERGY| Total FORCE_EVAL ( QS ) energy [hartree]             -8.061750269826238

 MD| ***************************************************************************
 MD| Step number                                                               9
 MD| Time [fs]                                                          4.500000
 MD| Conserved quantity [hartree]                            -0.805717248977E+01
 MD| ---------------------------------------------------------------------------
 MD|                                          Instantaneous             Averages
 MD| CPU time per MD step [s]                      0.959434             1.480306
 MD| Energy drift per atom [K]           0.805148337896E+00   0.233204473725E+01
 MD| Potential energy [hartree]         -0.806175026983E+01  -0.806095211475E+01
 MD| Kinetic energy [hartree]            0.457778005422E-02   0.380466776754E-02
 MD| Temperature [K]                             240.924481           200.236271
 MD| ***************************************************************************

 Number of electrons:                                                          8
 Number of occupied orbitals:                                                  4
 Number of molecular orbitals:                                                 4

 Number of orbital functions:                                                 33
 Number of independent orbital functions:                                     33

 Extrapolation method: ASPC


 SCF WAVEFUNCTION OPTIMIZATION

  ----------------------------------- OT ---------------------------------------
  Minimizer      : DIIS                : direct inversion
                                         in the iterative subspace
                                         using   7 DIIS vectors
                                         safer DIIS on
  Preconditioner : FULL_SINGLE_INVERSE : inversion of 
                                         H + eS - 2*(Sc)(c^T*H*c+const)(Sc)^T
  Precond_solver : DEFAULT
  stepsize       :    0.08000000                  energy_gap     :    0.08000000
  eps_taylor     :   0.10000E-15                  max_taylor     :             4
  ----------------------------------- OT ---------------------------------------

  Step     Update method      Time    Convergence         Total energy    Change
  ------------------------------------------------------------------------------
     1 OT DIIS     0.80E-01    0.2     0.00011721        -8.0615124176 -8.06E+00
     2 OT DIIS     0.80E-01    0.2     0.00006687        -8.0615125300 -1.12E-07
     3 OT DIIS     0.80E-01    0.2     0.00002326        -8.0615125890 -5.89E-08
     4 OT DIIS     0.80E-01    0.2     0.00000363        -8.0615125976 -8.68E-09

  *** SCF run converged in     4 steps ***


  Electronic density on regular grids:         -8.0000000027       -0.0000000027
  Core density on regular grids:                8.0000000352        0.0000000352
  Total charge density on r-space grids:        0.0000000325
  Total charge density g-space grids:           0.0000000325

  Overlap energy of the core charge distribution:               0.00000046646245
  Self energy of the core charge distribution:                -18.97690376224277
  Core Hamiltonian energy:                                      6.05001913237741
  Hartree energy:                                               8.00749002732763
  Exchange-correlation energy:                                 -3.14211846156136

  Total energy:                                                -8.06151259763666

 ENERGY| Total FORCE_EVAL ( QS ) energy [hartree]             -8.061512597890877

 MD| ***************************************************************************
 MD| Step number                                                              10
 MD| Time [fs]                                                          5.000000
 MD| Conserved quantity [hartree]                            -0.805716461676E+01
 MD| ---------------------------------------------------------------------------
 MD|                                          Instantaneous             Averages
 MD| CPU time per MD step [s]                      0.959961             1.428272
 MD| Energy drift per atom [K]           0.130236766230E+01   0.222907702976E+01
 MD| Potential energy [hartree]         -0.806151259789E+01  -0.806100816306E+01
 MD| Kinetic energy [hartree]            0.434798112779E-02   0.385899910356E-02
 MD| Temperature [K]                             228.830368           203.095681
 MD| ***************************************************************************

 Number of electrons:                                                          8
 Number of occupied orbitals:                                                  4
 Number of molecular orbitals:                                                 4

 Number of orbital functions:                                                 33
 Number of independent orbital functions:                                     33

 Extrapolation method: ASPC


 SCF WAVEFUNCTION OPTIMIZATION

  ----------------------------------- OT ---------------------------------------
  Minimizer      : DIIS                : direct inversion
                                         in the iterative subspace
                                         using   7 DIIS vectors
                                         safer DIIS on
  Preconditioner : FULL_SINGLE_INVERSE : inversion of 
                                         H + eS - 2*(Sc)(c^T*H*c+const)(Sc)^T
  Precond_solver : DEFAULT
  stepsize       :    0.08000000                  energy_gap     :    0.08000000
  eps_taylor     :   0.10000E-15                  max_taylor     :             4
  ----------------------------------- OT ---------------------------------------

  Step     Update method      Time    Convergence         Total energy    Change
  ------------------------------------------------------------------------------
     1 OT DIIS     0.80E-01    0.2     0.00013545        -8.0609720479 -8.06E+00
     2 OT DIIS     0.80E-01    0.2     0.00007932        -8.0609721996 -1.52E-07
     3 OT DIIS     0.80E-01    0.2     0.00002761        -8.0609722851 -8.55E-08
     4 OT DIIS     0.80E-01    0.2     0.00000525        -8.0609722976 -1.25E-08

  *** SCF run converged in     4 steps ***


  Electronic density on regular grids:         -8.0000000029       -0.0000000029
  Core density on regular grids:                8.0000000376        0.0000000376
  Total charge density on r-space grids:        0.0000000347
  Total charge density g-space grids:           0.0000000347

  Overlap energy of the core charge distribution:               0.00000043019589
  Self energy of the core charge distribution:                -18.97690376224277
  Core Hamiltonian energy:                                      6.03637794078332
  Hartree energy:                                               8.01693355031689
  Exchange-correlation energy:                                 -3.13738045661706

  Total energy:                                                -8.06097229756373

 ENERGY| Total FORCE_EVAL ( QS ) energy [hartree]             -8.060972298093830

 MD| ***************************************************************************
 MD| Step number                                                              11
 MD| Time [fs]                                                          5.500000
 MD| Conserved quantity [hartree]                            -0.805715364804E+01
 MD| ---------------------------------------------------------------------------
 MD|                                          Instantaneous             Averages
 MD| CPU time per MD step [s]                      0.968106             1.386438
 MD| Energy drift per atom [K]           0.199509686189E+01   0.220780610540E+01
 MD| Potential energy [hartree]         -0.806097229809E+01  -0.806100490261E+01
 MD| Kinetic energy [hartree]            0.381865005803E-02   0.385533100851E-02
 MD| Temperature [K]                             200.972146           202.902632
 MD| ***************************************************************************

 Number of electrons:                                                          8
 Number of occupied orbitals:                                                  4
 Number of molecular orbitals:                                                 4

 Number of orbital functions:                                                 33
 Number of independent orbital functions:                                     33

 Extrapolation method: ASPC


 SCF WAVEFUNCTION OPTIMIZATION

  ----------------------------------- OT ---------------------------------------
  Minimizer      : DIIS                : direct inversion
                                         in the iterative subspace
                                         using   7 DIIS vectors
                                         safer DIIS on
  Preconditioner : FULL_SINGLE_INVERSE : inversion of 
                                         H + eS - 2*(Sc)(c^T*H*c+const)(Sc)^T
  Precond_solver : DEFAULT
  stepsize       :    0.08000000                  energy_gap     :    0.08000000
  eps_taylor     :   0.10000E-15                  max_taylor     :             4
  ----------------------------------- OT ---------------------------------------

  Step     Update method      Time    Convergence         Total energy    Change
  ------------------------------------------------------------------------------
     1 OT DIIS     0.80E-01    0.2     0.00015045        -8.0602931820 -8.06E+00
     2 OT DIIS     0.80E-01    0.2     0.00009122        -8.0602933717 -1.90E-07
     3 OT DIIS     0.80E-01    0.2     0.00003193        -8.0602934900 -1.18E-07
     4 OT DIIS     0.80E-01    0.2     0.00000728        -8.0602935072 -1.72E-08

  *** SCF run converged in     4 steps ***


  Electronic density on regular grids:         -8.0000000022       -0.0000000022
  Core density on regular grids:                8.0000000289        0.0000000289
  Total charge density on r-space grids:        0.0000000267
  Total charge density g-space grids:           0.0000000267

  Overlap energy of the core charge distribution:               0.00000043389909
  Self energy of the core charge distribution:                -18.97690376224277
  Core Hamiltonian energy:                                      6.02949003506427
  Hartree energy:                                               8.02198053768211
  Exchange-correlation energy:                                 -3.13486075162418

  Total energy:                                                -8.06029350722148

 ENERGY| Total FORCE_EVAL ( QS ) energy [hartree]             -8.060293508234453

 MD| ***************************************************************************
 MD| Step number                                                              12
 MD| Time [fs]                                                          6.000000
 MD| Conserved quantity [hartree]                            -0.805714211052E+01
 MD| ---------------------------------------------------------------------------
 MD|                                          Instantaneous             Averages
 MD| CPU time per MD step [s]                      0.973818             1.352053
 MD| Energy drift per atom [K]           0.272374778727E+01   0.225080124556E+01
 MD| Potential energy [hartree]         -0.806029350823E+01  -0.806094561975E+01
 MD| Kinetic energy [hartree]            0.315139771331E-02   0.379666990058E-02
 MD| Temperature [K]                             165.855251           199.815350
 MD| ***************************************************************************

 Number of electrons:                                                          8
 Number of occupied orbitals:                                                  4
 Number of molecular orbitals:                                                 4

 Number of orbital functions:                                                 33
 Number of independent orbital functions:                                     33

 Extrapolation method: ASPC


 SCF WAVEFUNCTION OPTIMIZATION

  ----------------------------------- OT ---------------------------------------
  Minimizer      : DIIS                : direct inversion
                                         in the iterative subspace
                                         using   7 DIIS vectors
                                         safer DIIS on
  Preconditioner : FULL_SINGLE_INVERSE : inversion of 
                                         H + eS - 2*(Sc)(c^T*H*c+const)(Sc)^T
  Precond_solver : DEFAULT
  stepsize       :    0.08000000                  energy_gap     :    0.08000000
  eps_taylor     :   0.10000E-15                  max_taylor     :             4
  ----------------------------------- OT ---------------------------------------

  Step     Update method      Time    Convergence         Total energy    Change
  ------------------------------------------------------------------------------
     1 OT DIIS     0.80E-01    0.2     0.00016102        -8.0596546944 -8.06E+00
     2 OT DIIS     0.80E-01    0.2     0.00010132        -8.0596549151 -2.21E-07
     3 OT DIIS     0.80E-01    0.2     0.00003456        -8.0596550689 -1.54E-07
     4 OT DIIS     0.80E-01    0.2     0.00000895        -8.0596550895 -2.06E-08

  *** SCF run converged in     4 steps ***


  Electronic density on regular grids:         -8.0000000012       -0.0000000012
  Core density on regular grids:                8.0000000168        0.0000000168
  Total charge density on r-space grids:        0.0000000156
  Total charge density g-space grids:           0.0000000156

  Overlap energy of the core charge distribution:               0.00000046850806
  Self energy of the core charge distribution:                -18.97690376224277
  Core Hamiltonian energy:                                      6.02941704941592
  Hartree energy:                                               8.02246649642141
  Exchange-correlation energy:                                 -3.13463534161976

  Total energy:                                                -8.05965508951714

 ENERGY| Total FORCE_EVAL ( QS ) energy [hartree]             -8.059655091016994

 MD| ***************************************************************************
 MD| Step number                                                              13
 MD| Time [fs]                                                          6.500000
 MD| Conserved quantity [hartree]                            -0.805713204122E+01
 MD| ---------------------------------------------------------------------------
 MD|                                          Instantaneous             Averages
 MD| CPU time per MD step [s]                      0.973009             1.322896
 MD| Energy drift per atom [K]           0.335967361470E+01   0.233609912011E+01
 MD| Potential energy [hartree]         -0.805965509102E+01  -0.806084634830E+01
 MD| Kinetic energy [hartree]            0.252304979418E-02   0.369869912316E-02
 MD| Temperature [K]                             132.785860           194.659236
 MD| ***************************************************************************

 Number of electrons:                                                          8
 Number of occupied orbitals:                                                  4
 Number of molecular orbitals:                                                 4

 Number of orbital functions:                                                 33
 Number of independent orbital functions:                                     33

 Extrapolation method: ASPC


 SCF WAVEFUNCTION OPTIMIZATION

  ----------------------------------- OT ---------------------------------------
  Minimizer      : DIIS                : direct inversion
                                         in the iterative subspace
                                         using   7 DIIS vectors
                                         safer DIIS on
  Preconditioner : FULL_SINGLE_INVERSE : inversion of 
                                         H + eS - 2*(Sc)(c^T*H*c+const)(Sc)^T
  Precond_solver : DEFAULT
  stepsize       :    0.08000000                  energy_gap     :    0.08000000
  eps_taylor     :   0.10000E-15                  max_taylor     :             4
  ----------------------------------- OT ---------------------------------------

  Step     Update method      Time    Convergence         Total energy    Change
  ------------------------------------------------------------------------------
     1 OT DIIS     0.80E-01    0.2     0.00016625        -8.0592147626 -8.06E+00
     2 OT DIIS     0.80E-01    0.2     0.00010837        -8.0592150017 -2.39E-07
     3 OT DIIS     0.80E-01    0.2     0.00003476        -8.0592151877 -1.86E-07
     4 OT DIIS     0.80E-01    0.2     0.00001000        -8.0592152087 -2.10E-08

  *** SCF run converged in     4 steps ***


  Electronic density on regular grids:         -8.0000000000        0.0000000000
  Core density on regular grids:                8.0000000007        0.0000000007
  Total charge density on r-space grids:        0.0000000007
  Total charge density g-space grids:           0.0000000007

  Overlap energy of the core charge distribution:               0.00000052871031
  Self energy of the core charge distribution:                -18.97690376224277
  Core Hamiltonian energy:                                      6.03569210026225
  Hartree energy:                                               8.01859443052158
  Exchange-correlation energy:                                 -3.13659850596133

  Total energy:                                                -8.05921520870996

 ENERGY| Total FORCE_EVAL ( QS ) energy [hartree]             -8.059215210530548

 MD| ***************************************************************************
 MD| Step number                                                              14
 MD| Time [fs]                                                          7.000000
 MD| Conserved quantity [hartree]                            -0.805712520554E+01
 MD| ---------------------------------------------------------------------------
 MD|                                          Instantaneous             Averages
 MD| CPU time per MD step [s]                      0.973962             1.297972
 MD| Energy drift per atom [K]           0.379138070010E+01   0.244004780439E+01
 MD| Potential energy [hartree]         -0.805921521053E+01  -0.806072983846E+01
 MD| Kinetic energy [hartree]            0.209000499085E-02   0.358379239943E-02
 MD| Temperature [K]                             109.995098           188.611797
 MD| ***************************************************************************

 Number of electrons:                                                          8
 Number of occupied orbitals:                                                  4
 Number of molecular orbitals:                                                 4

 Number of orbital functions:                                                 33
 Number of independent orbital functions:                                     33

 Extrapolation method: ASPC


 SCF WAVEFUNCTION OPTIMIZATION

  ----------------------------------- OT ---------------------------------------
  Minimizer      : DIIS                : direct inversion
                                         in the iterative subspace
                                         using   7 DIIS vectors
                                         safer DIIS on
  Preconditioner : FULL_SINGLE_INVERSE : inversion of 
                                         H + eS - 2*(Sc)(c^T*H*c+const)(Sc)^T
  Precond_solver : DEFAULT
  stepsize       :    0.08000000                  energy_gap     :    0.08000000
  eps_taylor     :   0.10000E-15                  max_taylor     :             4
  ----------------------------------- OT ---------------------------------------

  Step     Update method      Time    Convergence         Total energy    Change
  ------------------------------------------------------------------------------
     1 OT DIIS     0.80E-01    0.2     0.00016888        -8.0590830703 -8.06E+00
     2 OT DIIS     0.80E-01    0.2     0.00011349        -8.0590833206 -2.50E-07
     3 OT DIIS     0.80E-01    0.2     0.00003280        -8.0590835358 -2.15E-07
     4 OT DIIS     0.80E-01    0.2     0.00001032        -8.0590835544 -1.86E-08
     5 OT DIIS     0.80E-01    0.2     0.00000182        -8.0590835563 -1.89E-09

  *** SCF run converged in     5 steps ***


  Electronic density on regular grids:         -7.9999999983        0.0000000017
  Core density on regular grids:                7.9999999798       -0.0000000202
  Total charge density on r-space grids:       -0.0000000184
  Total charge density g-space grids:          -0.0000000184

  Overlap energy of the core charge distribution:               0.00000060920727
  Self energy of the core charge distribution:                -18.97690376224277
  Core Hamiltonian energy:                                      6.04744065414026
  Hartree energy:                                               8.01087195110210
  Exchange-correlation energy:                                 -3.14049300853744

  Total energy:                                                -8.05908355633059

 ENERGY| Total FORCE_EVAL ( QS ) energy [hartree]             -8.059083556386526

 MD| ***************************************************************************
 MD| Step number                                                              15
 MD| Time [fs]                                                          7.500000
 MD| Conserved quantity [hartree]                            -0.805712235783E+01
 MD| ---------------------------------------------------------------------------
 MD|                                          Instantaneous             Averages
 MD| CPU time per MD step [s]                      1.167280             1.289259
 MD| Energy drift per atom [K]           0.397122743055E+01   0.254212644614E+01
 MD| Potential energy [hartree]         -0.805908355639E+01  -0.806062008633E+01
 MD| Kinetic energy [hartree]            0.196119855375E-02   0.347561947638E-02
 MD| Temperature [K]                             103.216130           182.918753
 MD| ***************************************************************************

 Number of electrons:                                                          8
 Number of occupied orbitals:                                                  4
 Number of molecular orbitals:                                                 4

 Number of orbital functions:                                                 33
 Number of independent orbital functions:                                     33

 Extrapolation method: ASPC


 SCF WAVEFUNCTION OPTIMIZATION

  ----------------------------------- OT ---------------------------------------
  Minimizer      : DIIS                : direct inversion
                                         in the iterative subspace
                                         using   7 DIIS vectors
                                         safer DIIS on
  Preconditioner : FULL_SINGLE_INVERSE : inversion of 
                                         H + eS - 2*(Sc)(c^T*H*c+const)(Sc)^T
  Precond_solver : DEFAULT
  stepsize       :    0.08000000                  energy_gap     :    0.08000000
  eps_taylor     :   0.10000E-15                  max_taylor     :             4
  ----------------------------------- OT ---------------------------------------

  Step     Update method      Time    Convergence         Total energy    Change
  ------------------------------------------------------------------------------
     1 OT DIIS     0.80E-01    0.2     0.00016934        -8.0593068152 -8.06E+00
     2 OT DIIS     0.80E-01    0.2     0.00011629        -8.0593070697 -2.54E-07
     3 OT DIIS     0.80E-01    0.2     0.00002939        -8.0593073049 -2.35E-07
     4 OT DIIS     0.80E-01    0.2     0.00000944        -8.0593073198 -1.48E-08

  *** SCF run converged in     4 steps ***


  Electronic density on regular grids:         -7.9999999966        0.0000000034
  Core density on regular grids:                7.9999999604       -0.0000000396
  Total charge density on r-space grids:       -0.0000000362
  Total charge density g-space grids:          -0.0000000362

  Overlap energy of the core charge distribution:               0.00000070199690
  Self energy of the core charge distribution:                -18.97690376224277
  Core Hamiltonian energy:                                      6.06348964244099
  Hartree energy:                                               8.00005482818371
  Exchange-correlation energy:                                 -3.14594873015746

  Total energy:                                                -8.05930731977863

 ENERGY| Total FORCE_EVAL ( QS ) energy [hartree]             -8.059307321304875

 MD| ***************************************************************************
 MD| Step number                                                              16
 MD| Time [fs]                                                          8.000000
 MD| Conserved quantity [hartree]                            -0.805712365222E+01
 MD| ---------------------------------------------------------------------------
 MD|                                          Instantaneous             Averages
 MD| CPU time per MD step [s]                      0.973779             1.269542
 MD| Energy drift per atom [K]           0.388948024353E+01   0.262633605848E+01
 MD| Potential energy [hartree]         -0.805930732130E+01  -0.806053803851E+01
 MD| Kinetic energy [hartree]            0.218366908087E-02   0.339487257666E-02
 MD| Temperature [K]                             114.924556           178.669115
 MD| ***************************************************************************

 Number of electrons:                                                          8
 Number of occupied orbitals:                                                  4
 Number of molecular orbitals:                                                 4

 Number of orbital functions:                                                 33
 Number of independent orbital functions:                                     33

 Extrapolation method: ASPC


 SCF WAVEFUNCTION OPTIMIZATION

  ----------------------------------- OT ---------------------------------------
  Minimizer      : DIIS                : direct inversion
                                         in the iterative subspace
                                         using   7 DIIS vectors
                                         safer DIIS on
  Preconditioner : FULL_SINGLE_INVERSE : inversion of 
                                         H + eS - 2*(Sc)(c^T*H*c+const)(Sc)^T
  Precond_solver : DEFAULT
  stepsize       :    0.08000000                  energy_gap     :    0.08000000
  eps_taylor     :   0.10000E-15                  max_taylor     :             4
  ----------------------------------- OT ---------------------------------------

  Step     Update method      Time    Convergence         Total energy    Change
  ------------------------------------------------------------------------------
     1 OT DIIS     0.80E-01    0.2     0.00016905        -8.0598667402 -8.06E+00
     2 OT DIIS     0.80E-01    0.2     0.00011763        -8.0598669954 -2.55E-07
     3 OT DIIS     0.80E-01    0.2     0.00002829        -8.0598672426 -2.47E-07
     4 OT DIIS     0.80E-01    0.2     0.00000631        -8.0598672572 -1.46E-08

  *** SCF run converged in     4 steps ***


  Electronic density on regular grids:         -7.9999999959        0.0000000041
  Core density on regular grids:                7.9999999522       -0.0000000478
  Total charge density on r-space grids:       -0.0000000437
  Total charge density g-space grids:          -0.0000000437

  Overlap energy of the core charge distribution:               0.00000079595941
  Self energy of the core charge distribution:                -18.97690376224277
  Core Hamiltonian energy:                                      6.08255386240582
  Hartree energy:                                               7.98700801520011
  Exchange-correlation energy:                                 -3.15252616854604

  Total energy:                                                -8.05986725722349

 ENERGY| Total FORCE_EVAL ( QS ) energy [hartree]             -8.059867257833055

 MD| ***************************************************************************
 MD| Step number                                                              17
 MD| Time [fs]                                                          8.500000
 MD| Conserved quantity [hartree]                            -0.805712900515E+01
 MD| ---------------------------------------------------------------------------
 MD|                                          Instantaneous             Averages
 MD| CPU time per MD step [s]                      0.976285             1.252292
 MD| Energy drift per atom [K]           0.355141632029E+01   0.268075254446E+01
 MD| Potential energy [hartree]         -0.805986725783E+01  -0.806049858082E+01
 MD| Kinetic energy [hartree]            0.273825267895E-02   0.335624787680E-02
 MD| Temperature [K]                             144.111796           176.636332
 MD| ***************************************************************************

 Number of electrons:                                                          8
 Number of occupied orbitals:                                                  4
 Number of molecular orbitals:                                                 4

 Number of orbital functions:                                                 33
 Number of independent orbital functions:                                     33

 Extrapolation method: ASPC


 SCF WAVEFUNCTION OPTIMIZATION

  ----------------------------------- OT ---------------------------------------
  Minimizer      : DIIS                : direct inversion
                                         in the iterative subspace
                                         using   7 DIIS vectors
                                         safer DIIS on
  Preconditioner : FULL_SINGLE_INVERSE : inversion of 
                                         H + eS - 2*(Sc)(c^T*H*c+const)(Sc)^T
  Precond_solver : DEFAULT
  stepsize       :    0.08000000                  energy_gap     :    0.08000000
  eps_taylor     :   0.10000E-15                  max_taylor     :             4
  ----------------------------------- OT ---------------------------------------

  Step     Update method      Time    Convergence         Total energy    Change
  ------------------------------------------------------------------------------
     1 OT DIIS     0.80E-01    0.2     0.00015818        -8.0606775206 -8.06E+00
     2 OT DIIS     0.80E-01    0.2     0.00011051        -8.0606777445 -2.24E-07
     3 OT DIIS     0.80E-01    0.2     0.00002527        -8.0606779642 -2.20E-07
     4 OT DIIS     0.80E-01    0.2     0.00000363        -8.0606779762 -1.19E-08

  *** SCF run converged in     4 steps ***


  Electronic density on regular grids:         -7.9999999963        0.0000000037
  Core density on regular grids:                7.9999999581       -0.0000000419
  Total charge density on r-space grids:       -0.0000000382
  Total charge density g-space grids:          -0.0000000382

  Overlap energy of the core charge distribution:               0.00000087975456
  Self energy of the core charge distribution:                -18.97690376224277
  Core Hamiltonian energy:                                      6.10334292970955
  Hartree energy:                                               7.97264582361163
  Exchange-correlation energy:                                 -3.15976384699389

  Total energy:                                                -8.06067797616093

 ENERGY| Total FORCE_EVAL ( QS ) energy [hartree]             -8.060677976382664

 MD| ***************************************************************************
 MD| Step number                                                              18
 MD| Time [fs]                                                          9.000000
 MD| Conserved quantity [hartree]                            -0.805713815599E+01
 MD| ---------------------------------------------------------------------------
 MD|                                          Instantaneous             Averages
 MD| CPU time per MD step [s]                      0.973104             1.236781
 MD| Energy drift per atom [K]           0.297349597578E+01   0.269701606843E+01
 MD| Potential energy [hartree]         -0.806067797638E+01  -0.806050854724E+01
 MD| Kinetic energy [hartree]            0.353982039349E-02   0.336644634995E-02
 MD| Temperature [K]                             186.297590           177.173068
 MD| ***************************************************************************

 Number of electrons:                                                          8
 Number of occupied orbitals:                                                  4
 Number of molecular orbitals:                                                 4

 Number of orbital functions:                                                 33
 Number of independent orbital functions:                                     33

 Extrapolation method: ASPC


 SCF WAVEFUNCTION OPTIMIZATION

[...]
 MD|                                          Instantaneous             Averages
 MD| CPU time per MD step [s]                      1.168451             1.052517
 MD| Energy drift per atom [K]           0.314700601156E+01   0.239625582584E+01
 MD| Potential energy [hartree]         -0.806062911362E+01  -0.806085816930E+01
 MD| Kinetic energy [hartree]            0.349370500426E-02   0.371091239894E-02
 MD| Temperature [K]                             183.870578           195.302009
 MD| ***************************************************************************

 Number of electrons:                                                          8
 Number of occupied orbitals:                                                  4
 Number of molecular orbitals:                                                 4

 Number of orbital functions:                                                 33
 Number of independent orbital functions:                                     33

 Extrapolation method: ASPC


 SCF WAVEFUNCTION OPTIMIZATION

  ----------------------------------- OT ---------------------------------------
  Minimizer      : DIIS                : direct inversion
                                         in the iterative subspace
                                         using   7 DIIS vectors
                                         safer DIIS on
  Preconditioner : FULL_SINGLE_INVERSE : inversion of 
                                         H + eS - 2*(Sc)(c^T*H*c+const)(Sc)^T
  Precond_solver : DEFAULT
  stepsize       :    0.08000000                  energy_gap     :    0.08000000
  eps_taylor     :   0.10000E-15                  max_taylor     :             4
  ----------------------------------- OT ---------------------------------------

  Step     Update method      Time    Convergence         Total energy    Change
  ------------------------------------------------------------------------------
     1 OT DIIS     0.80E-01    0.2     0.00027128        -8.0601016983 -8.06E+00
     2 OT DIIS     0.80E-01    0.2     0.00017951        -8.0601023403 -6.42E-07
     3 OT DIIS     0.80E-01    0.2     0.00005275        -8.0601028642 -5.24E-07
     4 OT DIIS     0.80E-01    0.2     0.00001583        -8.0601029131 -4.89E-08
     5 OT DIIS     0.80E-01    0.2     0.00000273        -8.0601029176 -4.46E-09

  *** SCF run converged in     5 steps ***


  Electronic density on regular grids:         -7.9999999967        0.0000000033
  Core density on regular grids:                7.9999999646       -0.0000000354
  Total charge density on r-space grids:       -0.0000000321
  Total charge density g-space grids:          -0.0000000321

  Overlap energy of the core charge distribution:               0.00000165502989
  Self energy of the core charge distribution:                -18.97690376224277
  Core Hamiltonian energy:                                      6.17634901733535
  Hartree energy:                                               7.92468042242540
  Exchange-correlation energy:                                 -3.18423025009877

  Total energy:                                                -8.06010291755091

 ENERGY| Total FORCE_EVAL ( QS ) energy [hartree]             -8.060102917677513

 MD| ***************************************************************************
 MD| Step number                                                             200
 MD| Time [fs]                                                        100.000000
 MD| Conserved quantity [hartree]                            -0.805711636666E+01
 MD| ---------------------------------------------------------------------------
 MD|                                          Instantaneous             Averages
 MD| CPU time per MD step [s]                      1.173690             1.053123
 MD| Energy drift per atom [K]           0.434959943802E+01   0.240602254390E+01
 MD| Potential energy [hartree]         -0.806010291768E+01  -0.806085439304E+01
 MD| Kinetic energy [hartree]            0.298655101613E-02   0.370729059202E-02
 MD| Temperature [K]                             157.179516           195.111397
 MD| ***************************************************************************

 Number of electrons:                                                          8
 Number of occupied orbitals:                                                  4
 Number of molecular orbitals:                                                 4

 Number of orbital functions:                                                 33
 Number of independent orbital functions:                                     33

 Extrapolation method: ASPC


 SCF WAVEFUNCTION OPTIMIZATION

  ----------------------------------- OT ---------------------------------------
  Minimizer      : DIIS                : direct inversion
                                         in the iterative subspace
                                         using   7 DIIS vectors
                                         safer DIIS on
  Preconditioner : FULL_SINGLE_INVERSE : inversion of 
                                         H + eS - 2*(Sc)(c^T*H*c+const)(Sc)^T
  Precond_solver : DEFAULT
  stepsize       :    0.08000000                  energy_gap     :    0.08000000
  eps_taylor     :   0.10000E-15                  max_taylor     :             4
  ----------------------------------- OT ---------------------------------------

  Step     Update method      Time    Convergence         Total energy    Change
  ------------------------------------------------------------------------------
     1 OT DIIS     0.80E-01    0.2     0.00027295        -8.0601052131 -8.06E+00
     2 OT DIIS     0.80E-01    0.2     0.00017888        -8.0601058600 -6.47E-07
     3 OT DIIS     0.80E-01    0.2     0.00005463        -8.0601063720 -5.12E-07
     4 OT DIIS     0.80E-01    0.2     0.00001594        -8.0601064246 -5.26E-08
     5 OT DIIS     0.80E-01    0.2     0.00000274        -8.0601064292 -4.56E-09

  *** SCF run converged in     5 steps ***


  Electronic density on regular grids:         -8.0000000002       -0.0000000002
  Core density on regular grids:                8.0000000066        0.0000000066
  Total charge density on r-space grids:        0.0000000064
  Total charge density g-space grids:           0.0000000064

  Overlap energy of the core charge distribution:               0.00000173946372
  Self energy of the core charge distribution:                -18.97690376224277
  Core Hamiltonian energy:                                      6.19016722108825
  Hartree energy:                                               7.91552834578246
  Exchange-correlation energy:                                 -3.18889997326284

  Total energy:                                                -8.06010642917118

 ENERGY| Total FORCE_EVAL ( QS ) energy [hartree]             -8.060106429298830

 MD| ***************************************************************************
 MD| Step number                                                             201
 MD| Time [fs]                                                        100.500000
 MD| Conserved quantity [hartree]                            -0.805711657623E+01
 MD| ---------------------------------------------------------------------------
 MD|                                          Instantaneous             Averages
 MD| CPU time per MD step [s]                      1.172643             1.053718
 MD| Energy drift per atom [K]           0.433636415386E+01   0.241562623350E+01
 MD| Potential energy [hartree]         -0.806010642930E+01  -0.806085067183E+01
 MD| Kinetic energy [hartree]            0.298985306895E-02   0.370372125111E-02
 MD| Temperature [K]                             157.353300           194.923546
 MD| ***************************************************************************

 Number of electrons:                                                          8
 Number of occupied orbitals:                                                  4
 Number of molecular orbitals:                                                 4

 Number of orbital functions:                                                 33
 Number of independent orbital functions:                                     33

 Extrapolation method: ASPC


 SCF WAVEFUNCTION OPTIMIZATION

  ----------------------------------- OT ---------------------------------------
  Minimizer      : DIIS                : direct inversion
                                         in the iterative subspace
                                         using   7 DIIS vectors
                                         safer DIIS on
  Preconditioner : FULL_SINGLE_INVERSE : inversion of 
                                         H + eS - 2*(Sc)(c^T*H*c+const)(Sc)^T
  Precond_solver : DEFAULT
  stepsize       :    0.08000000                  energy_gap     :    0.08000000
  eps_taylor     :   0.10000E-15                  max_taylor     :             4
  ----------------------------------- OT ---------------------------------------

  Step     Update method      Time    Convergence         Total energy    Change
  ------------------------------------------------------------------------------
     1 OT DIIS     0.80E-01    0.2     0.00023426        -8.0606354975 -8.06E+00
     2 OT DIIS     0.80E-01    0.2     0.00015238        -8.0606359725 -4.75E-07
     3 OT DIIS     0.80E-01    0.2     0.00004696        -8.0606363392 -3.67E-07
     4 OT DIIS     0.80E-01    0.2     0.00001348        -8.0606363778 -3.86E-08
     5 OT DIIS     0.80E-01    0.2     0.00000232        -8.0606363812 -3.32E-09

  *** SCF run converged in     5 steps ***


  Electronic density on regular grids:         -8.0000000031       -0.0000000031
  Core density on regular grids:                8.0000000413        0.0000000413
  Total charge density on r-space grids:        0.0000000381
  Total charge density g-space grids:           0.0000000381

  Overlap energy of the core charge distribution:               0.00000163666922
  Self energy of the core charge distribution:                -18.97690376224277
  Core Hamiltonian energy:                                      6.19657260900302
  Hartree energy:                                               7.91090252400202
  Exchange-correlation energy:                                 -3.19120938859295

  Total energy:                                                -8.06063638116146

 ENERGY| Total FORCE_EVAL ( QS ) energy [hartree]             -8.060636381253051

 MD| ***************************************************************************
 MD| Step number                                                             202
 MD| Time [fs]                                                        101.000000
 MD| Conserved quantity [hartree]                            -0.805713497502E+01
 MD| ---------------------------------------------------------------------------
 MD|                                          Instantaneous             Averages
 MD| CPU time per MD step [s]                      1.164032             1.054264
 MD| Energy drift per atom [K]           0.317438976535E+01   0.241938248861E+01
 MD| Potential energy [hartree]         -0.806063638125E+01  -0.806084961098E+01
 MD| Kinetic energy [hartree]            0.350140623155E-02   0.370271969161E-02
 MD| Temperature [K]                             184.275887           194.870834
 MD| ***************************************************************************

 Number of electrons:                                                          8
 Number of occupied orbitals:                                                  4
 Number of molecular orbitals:                                                 4

 Number of orbital functions:                                                 33
 Number of independent orbital functions:                                     33

 Extrapolation method: ASPC


 SCF WAVEFUNCTION OPTIMIZATION

  ----------------------------------- OT ---------------------------------------
  Minimizer      : DIIS                : direct inversion
                                         in the iterative subspace
                                         using   7 DIIS vectors
                                         safer DIIS on
  Preconditioner : FULL_SINGLE_INVERSE : inversion of 
                                         H + eS - 2*(Sc)(c^T*H*c+const)(Sc)^T
  Precond_solver : DEFAULT
  stepsize       :    0.08000000                  energy_gap     :    0.08000000
  eps_taylor     :   0.10000E-15                  max_taylor     :             4
  ----------------------------------- OT ---------------------------------------

  Step     Update method      Time    Convergence         Total energy    Change
  ------------------------------------------------------------------------------
     1 OT DIIS     0.80E-01    0.2     0.00017149        -8.0614097033 -8.06E+00
     2 OT DIIS     0.80E-01    0.2     0.00011052        -8.0614099568 -2.54E-07
     3 OT DIIS     0.80E-01    0.2     0.00003397        -8.0614101467 -1.90E-07
     4 OT DIIS     0.80E-01    0.2     0.00000959        -8.0614101666 -1.99E-08

  *** SCF run converged in     4 steps ***


  Electronic density on regular grids:         -8.0000000045       -0.0000000045
  Core density on regular grids:                8.0000000569        0.0000000569
  Total charge density on r-space grids:        0.0000000525
  Total charge density g-space grids:           0.0000000525

  Overlap energy of the core charge distribution:               0.00000144155676
  Self energy of the core charge distribution:                -18.97690376224277
  Core Hamiltonian energy:                                      6.19574020177477
  Hartree energy:                                               7.91088976504638
  Exchange-correlation energy:                                 -3.19113781274081

  Total energy:                                                -8.06141016660567

 ENERGY| Total FORCE_EVAL ( QS ) energy [hartree]             -8.061410168327621

 MD| ***************************************************************************
 MD| Step number                                                             203
 MD| Time [fs]                                                        101.500000
 MD| Conserved quantity [hartree]                            -0.805715913766E+01
 MD| ---------------------------------------------------------------------------
 MD|                                          Instantaneous             Averages
 MD| CPU time per MD step [s]                      0.970938             1.053853
 MD| Energy drift per atom [K]           0.164840008503E+01   0.241558454573E+01
 MD| Potential energy [hartree]         -0.806141016833E+01  -0.806085237235E+01
 MD| Kinetic energy [hartree]            0.425103066846E-02   0.370542073091E-02
 MD| Temperature [K]                             223.727952           195.012988
 MD| ***************************************************************************

 Number of electrons:                                                          8
 Number of occupied orbitals:                                                  4
 Number of molecular orbitals:                                                 4

 Number of orbital functions:                                                 33
 Number of independent orbital functions:                                     33

 Extrapolation method: ASPC


 SCF WAVEFUNCTION OPTIMIZATION

  ----------------------------------- OT ---------------------------------------
  Minimizer      : DIIS                : direct inversion
                                         in the iterative subspace
                                         using   7 DIIS vectors
                                         safer DIIS on
  Preconditioner : FULL_SINGLE_INVERSE : inversion of 
                                         H + eS - 2*(Sc)(c^T*H*c+const)(Sc)^T
  Precond_solver : DEFAULT
  stepsize       :    0.08000000                  energy_gap     :    0.08000000
  eps_taylor     :   0.10000E-15                  max_taylor     :             4
  ----------------------------------- OT ---------------------------------------

  Step     Update method      Time    Convergence         Total energy    Change
  ------------------------------------------------------------------------------
     1 OT DIIS     0.80E-01    0.2     0.00011150        -8.0620455701 -8.06E+00
     2 OT DIIS     0.80E-01    0.2     0.00007022        -8.0620456763 -1.06E-07
     3 OT DIIS     0.80E-01    0.2     0.00002137        -8.0620457501 -7.38E-08
     4 OT DIIS     0.80E-01    0.2     0.00000554        -8.0620457577 -7.57E-09

  *** SCF run converged in     4 steps ***


  Electronic density on regular grids:         -8.0000000027       -0.0000000027
  Core density on regular grids:                8.0000000358        0.0000000358
  Total charge density on r-space grids:        0.0000000330
  Total charge density g-space grids:           0.0000000330

  Overlap energy of the core charge distribution:               0.00000126541850
  Self energy of the core charge distribution:                -18.97690376224277
  Core Hamiltonian energy:                                      6.18860978063115
  Hartree energy:                                               7.91514778519110
  Exchange-correlation energy:                                 -3.18890082666863

  Total energy:                                                -8.06204575767066

 ENERGY| Total FORCE_EVAL ( QS ) energy [hartree]             -8.062045758272120

 MD| ***************************************************************************
 MD| Step number                                                             204
 MD| Time [fs]                                                        102.000000
 MD| Conserved quantity [hartree]                            -0.805717711722E+01
 MD| ---------------------------------------------------------------------------
 MD|                                          Instantaneous             Averages
 MD| CPU time per MD step [s]                      0.978181             1.053482
 MD| Energy drift per atom [K]           0.512902100064E+00   0.240625767100E+01
 MD| Potential energy [hartree]         -0.806204575827E+01  -0.806085822228E+01
 MD| Kinetic energy [hartree]            0.486864105075E-02   0.371112279130E-02
 MD| Temperature [K]                             256.232236           195.313082
 MD| ***************************************************************************

 Number of electrons:                                                          8
 Number of occupied orbitals:                                                  4
 Number of molecular orbitals:                                                 4

 Number of orbital functions:                                                 33
 Number of independent orbital functions:                                     33

 Extrapolation method: ASPC


 SCF WAVEFUNCTION OPTIMIZATION

  ----------------------------------- OT ---------------------------------------
  Minimizer      : DIIS                : direct inversion
                                         in the iterative subspace
                                         using   7 DIIS vectors
                                         safer DIIS on
  Preconditioner : FULL_SINGLE_INVERSE : inversion of 
                                         H + eS - 2*(Sc)(c^T*H*c+const)(Sc)^T
  Precond_solver : DEFAULT
  stepsize       :    0.08000000                  energy_gap     :    0.08000000
  eps_taylor     :   0.10000E-15                  max_taylor     :             4
  ----------------------------------- OT ---------------------------------------

  Step     Update method      Time    Convergence         Total energy    Change
  ------------------------------------------------------------------------------
