       5
 i =        0, time =        0.000, E =        -8.0628855062
  C         5.0000000000        5.0000000000        5.0000000000
  H         5.6300000000        5.6300000000        5.6300000000
  H         4.3700000000        4.3700000000        5.6300000000
  H         4.3700000000        5.6300000000        4.3700000000
  H         5.6300000000        4.3700000000        4.3700000000
       5
 i =        1, time =        0.500, E =        -8.0623711963
  C         4.9986197006        5.0012587103        5.0000070506
  H         5.6301015740        5.6305516142        5.6268612364
  H         4.3602895584        4.3673262983        5.6219609001
  H         4.3833298039        5.6205173708        4.3776579187
  H         5.6427268307        4.3666058160        4.3734359297
       5
 i =        2, time =        1.000, E =        -8.0614289675
  C         4.9973426920        5.0023885325        5.0000594720
  H         5.6309117097        5.6318490382        5.6246490189
  H         4.3500839206        4.3640746760        5.6146386649
  H         4.3949356616        5.6127723199        4.3834930053
  H         5.6556787884        4.3628911015        4.3765111618
       5
 i =        3, time =        1.500, E =        -8.0604384951
  C         4.9962674653        5.0032676709        5.0002071270
  H         5.6323483639        5.6338501708        5.6234937674
  H         4.3396253562        4.3604403606        5.6079865406
  H         4.4039004432        5.6077028590        4.3864783445
  H         5.6684001698        4.3592576014        4.3795784927
       5
 i =        4, time =        2.000, E =        -8.0598225749
  C         4.9954723153        5.0037996069        5.0004922038
  H         5.6342608795        5.6364506020        5.6234455885
  H         4.3291558179        4.3566516671        5.6019230233
  H         4.4095801219        5.6059920745        4.3858434521
  H         5.6804917272        4.3560715917        4.3829485137
       5
 i =        5, time =        2.500, E =        -8.0598131467
  C         4.9950030678        5.0039275884        5.0009364645
  H         5.6364394456        5.6394957944        5.6244790520
  H         4.3189128793        4.3529497046        5.5963431701
  H         4.4117376859        5.6079207923        4.3812330001
  H         5.6916018791        4.3536387839        4.3868657581
       5
 i =        6, time =        3.000, E =        -8.0603262143
  C         4.9948670504        5.0036418737        5.0015334588
  H         5.6386307024        5.6427977767        5.6265052970
  H         4.3091329276        4.3495702289        5.5911309121
  H         4.4105864775        5.6132999910        4.3727857213
  H         5.7014201991        4.3521903260        4.3914955592
       5
 i =        7, time =        3.500, E =        -8.0610358772
  C         4.9950356614        5.0029773070        5.0022490809
  H         5.6405566494        5.6461532754        5.6293888306
  H         4.3000514011        4.3467289732        5.5861710386
  H         4.4067368850        5.6215086126        4.3610952812
  H         5.7096879931        4.3518760512        4.3969183919
       5
 i =        8, time =        4.000, E =        -8.0615822909
  C         4.9954538460        5.0020029833        5.0030296557
  H         5.6419341024        5.6493607237        5.6329664257
  H         4.2918935390        4.3446102531        5.5813595750
  H         4.4010706836        5.6316254988        4.3470569800
  H         5.7162213031        4.3527623114        4.4031308128
       5
 i =        9, time =        4.500, E =        -8.0617502698
  C         4.9960521323        5.0008086171        5.0038134016
  H         5.6424928431        5.6522347020        5.6370660070
  H         4.2848561467        4.3433582097        5.5766120087
  H         4.3945897000        5.6426090518        4.3316684679
  H         5.7209328069        4.3548319035        4.4100521839
       5
 i =       10, time =        5.000, E =        -8.0615125979
  C         4.9967570177        4.9994922658        5.0045407521
  H         5.6419911771        5.6546171353        5.6415236487
  H         4.2790867086        4.3430702924        5.5718690571
  H         4.3882807935        5.6534617697        4.3158851540
  H         5.7238454057        4.3579847452        4.4175353891
       5
 i =       11, time =        5.500, E =        -8.0609722981
  C         4.9974978853        4.9981515782        5.0051611266
  H         5.6402289694        5.6563854029        5.6461978470
  H         4.2746661324        4.3437927250        5.5671007132
  H         4.3830190208        5.6633315565        4.3005769430
  H         5.7250949817        4.3620397240        4.4253808025
       5
 i =       12, time =        6.000, E =        -8.0602935082
  C         4.9982105874        4.9968786835        5.0056359355
  H         5.6370583687        5.6574575037        5.6509800488
  H         4.2715993727        4.3455177822        5.5623084112
  H         4.3795133293        5.6715426630        4.2865330336
  H         5.7249251513        4.3667387973        4.4333498624
       5
 i =       13, time =        6.500, E =        -8.0596550910
  C         4.9988389606        4.9957574739        5.0059388437
  H         5.6323930628        5.6577947582        5.6558013964
  H         4.2698136110        4.3481826748        5.5575258666
  H         4.3782886882        5.6775882681        4.2744398435
  H         5.7236742086        4.3717558724        4.4411767776
       5
 i =       14, time =        7.000, E =        -8.0592152105
  C         4.9993355732        4.9948618973        5.0060543891
  H         5.6262164261        5.6574023719        5.6606359465
  H         4.2691618032        4.3516701397        5.5528186213
  H         4.3796890601        5.6811158119        4.2648310752
  H         5.7217537084        4.3767135513        4.4485794458
       5
 i =       15, time =        7.500, E =        -8.0590835564
  C         4.9996626622        4.9942541933        5.0059758172
  H         5.6185881998        5.6563279841        5.6655006083
  H         4.2694313778        4.3558111979        5.5482817244
  H         4.3838878541        5.6819179009        4.2580528449
  H         5.7196174393        4.3812102358        4.4552735509
       5
 i =       16, time =        8.000, E =        -8.0593073213
  C         4.9997938047        4.9939824006        5.0057028475
  H         5.6096462662        5.6546581766        5.6704521351
  H         4.2703569465        4.3603909033        5.5440345998
  H         4.3908959058        5.6799282148        4.2542615017
  H         5.7177201014        4.3848563914        4.4609942705
       5
 i =       17, time =        8.500, E =        -8.0598672578
  C         4.9997162549        4.9940770704        5.0052400168
  H         5.5995988484        5.6525129025        5.6755811913
  H         4.2716375306        4.3651582931        5.5402122890
  H         4.4005656331        5.6752189341        4.2534350497
  H         5.7164705482        4.3873156217        4.4655256558
       5
 i =       18, time =        9.000, E =        -8.0606779764
  C         4.9994337096        4.9945472937        5.0045962879
  H         5.5887012850        5.6500372266        5.6810031139
  H         4.2729589218        4.3698417990        5.5369525432
  H         4.4125992516        5.6680005804        4.2553767491
  H         5.7161844234        4.3883450339        4.4687338366
       5
 i =       19, time =        9.500, E =        -8.0615916996
  C         4.9989685452        4.9953769314        5.0037863409
  H         5.5772204778        5.6473907967        5.6868452466
  H         4.2740199833        4.3741701317        5.5343792132
  H         4.4265733387        5.6586264180        4.2597060707
  H         5.7170470138        4.3878253492        4.4705941787
       5
 i =       20, time =       10.000, E =        -8.0624067112
  C         4.9983627928        4.9965218685        5.0028336053
  H         5.5653998108        5.6447358403        5.6932312249
  H         4.2745599993        4.3778967806        5.5325837501
  H         4.4419719805        5.6476074154        4.2658399238
  H         5.7190938743        4.3857756016        4.4712041272
       5
 i =       21, time =       10.500, E =        -8.0628899941
  C         4.9976772163        4.9979092402        5.0017743553
  H         5.5534398557        5.6422244364        5.7002629166
  H         4.2743836807        4.3808248429        5.5316074191
  H         4.4581968736        5.6356383649        4.2729762283
  H         5.7222131549        4.3823494388        4.4707778394
       5
 i =       22, time =       11.000, E =        -8.0628420786
  C         4.9969879319        4.9994397644        5.0006612327
  H         5.5415015778        5.6399865005        5.7080019540
  H         4.2733791819        4.3828274661        5.5314273391
  H         4.4745337014        5.6236143787        4.2801015494
  H         5.7261692354        4.3778130844        4.4696236231
       5
 i =       23, time =       11.500, E =        -8.0622157727
  C         4.9963800888        5.0009943582        4.9995636894
  H         5.5297248742        5.6381200892        5.7164536209
  H         4.2715256509        4.3838600239        5.5319496730
  H         4.4901215291        5.6125954190        4.2860463391
  H         5.7306423817        4.3725100524        4.4681098523
       5
 i =       24, time =       12.000, E =        -8.0612191136
  C         4.9959383990        5.0024457949        4.9985627774
  H         5.5182476112        5.6366851482        5.7255581357
  H         4.2688889176        4.3839614341        5.5330121009
  H         4.5040137226        5.6036891565        4.2896033114
  H         5.7352748819        4.3668187351        4.4666269781
       5
 i =       25, time =       12.500, E =        -8.0602770859
  C         4.9957349481        5.0036749509        4.9977392110
  H         5.5072115060        5.6357011103        5.7351932989
  H         4.2656064213        4.3832448436        5.5343953971
  H         4.5153498251        5.5978707621        4.2897062859
  H         5.7397156132        4.3611118010        4.4655525421
       5
 i =       26, time =       13.000, E =        -8.0598195908
  C         4.9958167901        5.0045887909        4.9971569203
  H         5.4967517478        5.6351487191        5.7451895981
  H         4.2618645012        4.3818801321        5.5358418677
  H         4.5235474471        5.5957965620        4.2856364034
  H         5.7436556880        4.3557237360        4.4652238749
       5
 i =       27, time =       13.500, E =        -8.0600287128
  C         4.9961971132        5.0051349334        4.9968479529
  H         5.4869769720        5.6349748513        5.7553524502
  H         4.2578727698        4.3800721200        5.5370767437
  H         4.5284180615        5.5976713352        4.2771994726
  H         5.7468524934        4.3509292736        4.4659190356
       5
 i =       28, time =       14.000, E =        -8.0607358893
  C         4.9968533996        5.0053076956        4.9968053885
  H         5.4779513158        5.6350991833        5.7654821158
  H         4.2538392432        4.3780382686        5.5378287624
  H         4.5301760066        5.6032078410        4.2648007581
  H         5.7491432213        4.3469324081        4.4678450920
       5
 i =       29, time =       14.500, E =        -8.0615480253
  C         4.9977332484        5.0051438886        4.9969874231
  H         5.4696869460        5.6354219204        5.7753847229
  H         4.2499499693        4.3759888528        5.5378475838
  H         4.5293583703        5.6116927494        4.2493622204
  H         5.7504502528        4.3438628564        4.4711313508
       5
 i =       30, time =       15.000, E =        -8.0620913814
  C         4.9987650966        5.0047111945        4.9973300540
  H         5.4621490713        5.6358318319        5.7848720514
  H         4.2463543113        4.3741110423        5.5369171750
  H         4.5266965001        5.6221325089        4.2320951033
  H         5.7507818397        4.3417763832        4.4758251679
       5
 i =       31, time =       15.500, E =        -8.0621740037
  C         4.9998695468        5.0040944036        4.9977622175
  H         5.4552682390        5.6362145014        5.7937561007
  H         4.2431557486        4.3725573226        5.5348652532
  H         4.5229861991        5.6334341693        4.2142430263
  H         5.7502302103        4.3406567830        4.4818891570
       5
 i =       32, time =       16.000, E =        -8.0617917958
  C         5.0009681030        5.0033839175        4.9982178651
  H         5.4489551815        5.6364608768        5.8018464785
  H         4.2404068211        4.3714377682        5.5315698953
  H         4.5189897899        5.6445681680        4.1969467195
  H         5.7489681625        4.3404186417        4.4891999172
       5
 i =       33, time =       16.500, E =        -8.0610686506
  C         5.0019885674        5.0026679122        4.9986428174
  H         5.4431148578        5.6364755655        5.8089559556
  H         4.2381076632        4.3708159575        5.5269642190
  H         4.5153768108        5.6546716580        4.1812345512
  H         5.7472422005        4.3409126300        4.4975516881
       5
 i =       34, time =       17.000, E =        -8.0602039188
  C         5.0028678139        5.0020277070        4.9989969021
  H         5.4376581872        5.6361843591        5.8149152332
  H         4.2362071115        4.3707076654        5.5210404641
  H         4.5126958919        5.6630810718        4.1680141003
  H         5.7453606736        4.3419347004        4.5066693603
       5
 i =       35, time =       17.500, E =        -8.0594204561
  C         5.0035531864        5.0015349973        4.9992529852
  H         5.4325109743        5.6355403310        5.8195918250
  H         4.2346061765        4.3710819105        5.5138535578
  H         4.5113654839        5.6693189388        4.1580134188
  H         5.7436745161        4.3432409352        4.5162349677
       5
 i =       36, time =       18.000, E =        -8.0589113091
  C         5.0040034697        5.0012497565        4.9993944033
  H         5.4276200800        5.6345283924        5.8229074914
  H         4.2331640676        4.3718643846        5.5055224074
  H         4.5116758703        5.6730689145        4.1517299255
  H         5.7425497411        4.3445687189        4.5259263775
       5
 i =       37, time =       18.500, E =        -8.0588034020
  C         5.0041899961        5.0012179626        4.9994120937
  H         5.4229570382        5.6331680552        5.8248510854
  H         4.2317071679        4.3729435628        5.4962251456
  H         4.5137953152        5.6741581244        4.1494240059
  H         5.7423327494        4.3456634895        4.5354583266
       5
 i =       38, time =       19.000, E =        -8.0591401923
  C         5.0040979596        5.0014688990        4.9993024200
  H         5.4185191949        5.6315142793        5.8254847938
  H         4.2300411006        4.3741796403        5.4861832712
  H         4.5177768190        5.6725492924        4.1511363182
  H         5.7433129242        4.3463079218        4.5446132677
       5
 i =       39, time =       19.500, E =        -8.0598722717
  C         5.0037277893        5.0020120480        4.9990664778
  H         5.4143285400        5.6296558942        5.8249436111
  H         4.2279658226        4.3754164883        5.4756339346
  H         4.5235631300        5.6683403566        4.1566951376
  H         5.7456881423        4.3463493043        4.5532569511
       5
 i =       40, time =       20.000, E =        -8.0608535630
  C         5.0030962191        5.0028339954        4.9987112433
  H         5.4104281297        5.6277110927        5.8234294167
  H         4.2252930582        4.3764962414        5.4647961598
  H         4.5309910716        5.6617700620        4.1657042324
  H         5.7495400081        4.3457203001        4.5613391513
       5
 i =       41, time =       20.500, E =        -8.0618531039
  C         5.0022366168        5.0038961096        4.9982524300
  H         5.4068760913        5.6258198224        5.8211987007
  H         4.2218637316        4.3772747821        5.4538447729
  H         4.5397961665        5.6532304513        4.1775212791
  H         5.7548254491        4.3444477660        4.5688833281
       5
 i =       42, time =       21.000, E =        -8.0625977201
  C         5.0011983467        5.0051335929        4.9977184404
  H         5.4037373051        5.6241331300        5.8185456580
  H         4.2175636214        4.3776367131        5.4429005315
  H         4.5496174302        5.6432881092        4.1912533558
  H         5.7613862286        4.3426484461        4.5759698173
       5
 i =       43, time =       21.500, E =        -8.0628475156
  C         5.0000448919        5.0064567003        4.9971541099
  H         5.4010733025        5.6228000989        5.8157806987
  H         4.2123353740        4.3775077789        5.4320385159
  H         4.5600000059        5.6327064812        4.2057956244
  H         5.7689738564        4.3405128354        4.5827156478
       5
 i =       44, time =       22.000, E =        -8.0624848285
  C         4.9988503873        5.0077549758        4.9966223650
  H         5.3989313463        5.6219536274        5.8132059025
  H         4.2061860654        4.3768630194        5.4213074852
  H         4.5703988469        5.6224450380        4.2198966676
  H         5.7772816101        4.3382810295        4.5892531750
       5
 i =       45, time =       22.500, E =        -8.0615944960
  C         4.9976940184        5.0089054986        4.9962015270
  H         5.3973338981        5.6216960034        5.8110920215
  H         4.1991910264        4.3757298435        5.4107501319
  H         4.5801990429        5.6136003563        4.2322234772
  H         5.7859742483        4.3362160749        4.5957103841
       5
 i =       46, time =       23.000, E =        -8.0604966829
  C         4.9966519708        5.0097855576        4.9959764615
  H         5.3962702151        5.6220876124        5.8096585997
  H         4.1914933311        4.3741855102        5.4004159389
  H         4.5887744809        5.6072749759        4.2414499004
  H         5.7947104928        4.3345781920        4.6021943401
       5
 i =       47, time =       23.500, E =        -8.0596597681
  C         4.9957872703        5.0102892834        4.9960234424
  H         5.3956910700        5.6231396021        5.8090592242
  H         4.1832991086        4.3723493579        5.3903628858
  H         4.5955945509        5.6043943748        4.2464278812
  H         5.8031589319        4.3336025768        4.6087793772
       5
 i =       48, time =       24.000, E =        -8.0594741823
  C         4.9951397399        5.0103449874        4.9963923277
  H         5.3955072916        5.6248117606        5.8093734204
  H         4.1748657355        4.3703708510        5.3806492686
  H         4.6003498056        5.6055216798        4.2464181017
  H         5.8110123923        4.3334821320        4.6155017810
       5
 i =       49, time =       24.500, E =        -8.0600197171
  C         4.9947194655        5.0099280002        4.9970927044
  H         5.3955923344        5.6270157550        5.8106053938
  H         4.1664817176        4.3684154227        5.3713212682
  H         4.6030417674        5.6107274844        4.2412721941
  H         5.8180060091        4.3343548950        4.6223593864
       5
 i =       50, time =       25.000, E =        -8.0610190505
  C         4.9945067575        5.0090640618        4.9980904215
  H         5.3957883881        5.6296225774        5.8126884381
  H         4.1584390960        4.3666496710        5.3624023241
  H         4.6039917594        5.6195641054        4.2314638698
  H         5.8239358166        4.3362966338        4.6293161044
       5
 i =       51, time =       25.500, E =        -8.0620180829
  C         4.9944586421        5.0078222621        4.9993159799
  H         5.3959153053        5.6324731568        5.8154944049
  H         4.1510039989        4.3652276481        5.3538896955
  H         4.6037661839        5.6311616245        4.2179524960
  H         5.8286765345        4.3393177723        4.6363091231
       5
 i =       52, time =       26.000, E =        -8.0626315163
  C         4.9945188805        5.0063011859        5.0006802573
  H         5.3957814056        5.6353909412        5.8188470401
  H         4.1443925804        4.3642793373        5.3457583063
  H         4.6030557894        5.6444180855        4.2019661151
  H         5.8321924749        4.3433635013        4.6432564782
       5
 i =       53, time =       26.500, E =        -8.0626760227
  C         4.9946276878        5.0046138094        5.0020907092
  H         5.3951954080        5.6381952603        5.8225389804
  H         4.1387573781        4.3639016369        5.3379699616
  H         4.6025572684        5.6582109246        4.1848286480
  H         5.8345409633        4.3483159125        4.6500635581
       5
 i =       54, time =       27.000, E =        -8.0621750857
  C         4.9947287675        5.0028752366        5.0034632429
  H         5.3939784189        5.6407139811        5.8263497857
  H         4.1341811867        4.3641516197        5.3304840541
  H         4.6028878365        5.6715446364        4.1678628969
  H         5.8358684831        4.3539974000        4.6566273303
       5
 i =       55, time =       27.500, E =        -8.0613079789
  C         4.9947733530        5.0011944329        5.0047285128
  H         5.3919752851        5.6427942353        5.8300667424
  H         4.1306782833        4.3650424355        5.3232679422
  H         4.6045386963        5.6835992012        4.1522898637
  H         5.8363992657        4.3601763594        4.6628393625
       5
 i =       56, time =       28.000, E =        -8.0603304158
  C         4.9947220288        4.9996694490        5.0058335684
  H         5.3890643846        5.6443107723        5.8335033484
  H         4.1281988306        4.3665414184        5.3163053061
  H         4.6078592337        5.6937182305        4.1391046761
  H         5.8364173342        4.3665764278        4.6685886710
       5
 i =       57, time =       28.500, E =        -8.0594890501
  C         4.9945454280        4.9983847507        5.0067405222
  H         5.3851651096        5.6451721205        5.8365150655
  H         4.1266354898        4.3685706044        5.3096014113
  H         4.6130595357        5.7013939775        4.1290126940
  H         5.8362417707        4.3728918072        4.6737667588
       5
 i =       58, time =       29.000, E =        -8.0589692685
  C         4.9942246696        4.9974093653        5.0074238847
  H         5.3802422323        5.6453248283        5.8390108299
  H         4.1258319365        4.3710099821        5.3031845001
  H         4.6202220605        5.7062688458        4.1224520934
  H         5.8361954315        4.3788098448        4.6782761424
       5
 i =       59, time =       29.500, E =        -8.0588773862
  C         4.9937518772        4.9967950766        5.0078678706
  H         5.3743064496        5.6447558529        5.8409595130
  H         4.1255937859        4.3737039211        5.2971031904
  H         4.6293183210        5.7081434009        4.1196450395
  H         5.8365703249        4.3840394430        4.6820417526
       5
 i =       60, time =       30.000, E =        -8.0592367944
  C         4.9931308356        4.9965742646        5.0080646391
  H         5.3674101056        5.6434930073        5.8423920567
  H         4.1257025052        4.3764709839        5.2914203400
  H         4.6402318671        5.7069824193        4.1206308339
  H         5.8375928789        4.3883397614        4.6850235435
       5
 i =       61, time =       30.500, E =        -8.0599869303
  C         4.9923773897        4.9967575500        5.0080139545
  H         5.3596380762        5.6416034133        5.8433999184
  H         4.1259320550        4.3791171734        5.2862039414
  H         4.6527873303        5.7029188203        4.1252743112
  H         5.8393953277        4.3915444496        4.6872273547
       5
 i =       62, time =       31.000, E =        -8.0609831442
  C         4.9915192796        4.9973314402        5.0077245262
  H         5.3510951906        5.6391897483        5.8441292100
  H         4.1260678535        4.3814521738        5.2815163786
  H         4.6667750659        5.6962572267        4.1332534479
  H         5.8419981874        4.3935754541        4.6887114511
       5
 i =       63, time =       31.500, E =        -8.0620002458
  C         4.9905950667        4.9982565243        5.0072168563
  H         5.3418935798        5.6363840435        5.8447714068
  H         4.1259258447        4.3833066208        5.2774037463
  H         4.6819505239        5.6874753712        4.1440281966
  H         5.8453089167        4.3944446748        4.6895866497
       5
 i =       64, time =       32.000, E =        -8.0627542303
  C         4.9896521167        4.9994666516        5.0065270322
  H         5.3321440689        5.6333391519        5.8455500511
  H         4.1253694153        4.3845488751        5.2738862554
  H         4.6979940434        5.6772207621        4.1567945913
  H         5.8491360643        4.3942444831        4.6900100320
       5
 i =       65, time =       32.500, E =        -8.0629720069
  C         4.9887436349        5.0008698737        5.0057101854
  H         5.3219551874        5.6302179306        5.8467034075
  H         4.1243215135        4.3850987046        5.2709515403
  H         4.7144556306        5.6663039636        4.1704537869
  H         5.8532168720        4.3931302716        4.6901735900
       5
 i =       66, time =       33.000, E =        -8.0625170863
  C         4.9879247221        5.0023523390        5.0048415659
  H         5.3114398803        5.6271808505        5.8484637330
  H         4.1227695489        4.3849351406        5.2685513549
  H         4.7307482047        5.6556863529        4.1836490193
  H         5.8572514857        4.3912986468        4.6902895517
       5
 i =       67, time =       33.500, E =        -8.0615073305
  C         4.9872475098        5.0037865920        5.0040127411
  H         5.3007246963        5.6243724205        5.8510341440
  H         4.1207626685        4.3840977357        5.2666025156
  H         4.7462322849        5.6464411671        4.1948964367
  H         5.8609373253        4.3889649578        4.6905751289
       5
 i =       68, time =       34.000, E =        -8.0603232698
  C         4.9867555501        5.0050450164        5.0033212340
  H         5.2899553858        5.6219090807        5.8545668584
  H         4.1184010320        4.3826804623        5.2649917263
  H         4.7603497110        5.6396530849        4.2027730354
  H         5.8639996507        4.3863425223        4.6912378442
       5
 i =       69, time =       34.500, E =        -8.0594666379
  C         4.9864782937        5.0060175814        5.0028539993
  H         5.2792909574        5.6198687578        5.8591454483
  H         4.1158197921        4.3808200593        5.2635833434
  H         4.7727200838        5.6362445540        4.2061230003
  H         5.8662141656        4.3836248101        4.6924632425
       5
 i =       70, time =       35.000, E =        -8.0593189172
  C         4.9864269710        5.0066299641        5.0026689440
  H         5.2688857148        5.6182836467        5.8647748994
  H         4.1131707927        4.3786808247        5.2622289941
  H         4.7831695825        5.6367777228        4.2042598882
  H         5.8674216893        4.3809716865        4.6944053971
       5
 i =       71, time =       35.500, E =        -8.0599325864
  C         4.9865932658        5.0068563515        5.0027813508
  H         5.2588654678        5.6171379671        5.8713808155
  H         4.1106046937        4.3764381596        5.2607774455
  H         4.7917163674        5.6413150408        4.1971146899
  H         5.8675369236        4.3784998557        4.6971796374
       5
 i =       72, time =       36.000, E =        -8.0610040226
  C         4.9869514820        5.0067219872        5.0031613962
  H         5.2493079050        5.6163704698        5.8788171166
  H         4.1082561440        4.3742635884        5.2590836411
  H         4.7985326817        5.6494066653        4.1852673618
  H         5.8665521535        4.3762772683        4.7008572583
       5
 i =       73, time =       36.500, E =        -8.0620486698
  C         4.9874634181        5.0062948437        5.0037437900
  H         5.2402358461        5.6158812148        5.8868790441
  H         4.1062328931        4.3723128303        5.2570160101
  H         4.8038923496        5.6602116548        4.1698519679
  H         5.8645372124        4.3743215194        4.7054618806
       5
 i =       74, time =       37.000, E =        -8.0626521862
  C         4.9880841445        5.0056704996        5.0044447217
  H         5.2316236825        5.6155415227        5.8953174419
  H         4.1046087027        4.3707170896        5.2544614924
  H         4.8081139474        5.6726904597        4.1523657874
  H         5.8616364173        4.3726017022        4.7109676587
       5
 i =       75, time =       37.500, E =        -8.0626415515
  C         4.9887670207        5.0049560484        5.0051790444
  H         5.2234125859        5.6152062245        5.9038519554
  H         4.1034193070        4.3695774529        5.2513281912
  H         4.8115131548        5.6857761805        4.1343958235