       5
 i =        0, time =        0.000, E =        -8.0628855062
  C        -0.0001261877        0.0001150723        0.0000006452
  H        -0.0000236776        0.0000174674       -0.0003199107
  H        -0.0008547740       -0.0002114709       -0.0007679000
  H         0.0012515782       -0.0008998677        0.0007330508
  H         0.0011305367       -0.0002773407        0.0003470720
       5
 i =        1, time =        0.500, E =        -8.0623711963
  C        -0.0001214663        0.0001091805        0.0000027185
  H         0.0000416745        0.0000845201       -0.0002445949
  H        -0.0009103697       -0.0002708483       -0.0007021711
  H         0.0011398163       -0.0007874822        0.0006167692
  H         0.0011737848       -0.0003249498        0.0002976271
       5
 i =        2, time =        1.000, E =        -8.0614289675
  C        -0.0001075214        0.0000918302        0.0000091456
  H         0.0001027014        0.0001507780       -0.0001539280
  H        -0.0009445667       -0.0003147582       -0.0006387720
  H         0.0009402899       -0.0005857550        0.0004031842
  H         0.0011735358       -0.0003358890        0.0002807783
       5
 i =        3, time =        1.500, E =        -8.0604384951
  C        -0.0000854955        0.0000645006        0.0000197803
  H         0.0001530915        0.0002103388       -0.0000550092
  H        -0.0009566296       -0.0003393079       -0.0005812357
  H         0.0006694025       -0.0003099270        0.0001074396
  H         0.0011342066       -0.0003117218        0.0002942532
       5
 i =        4, time =        2.000, E =        -8.0598225749
  C        -0.0000577960        0.0000301650        0.0000333382
  H         0.0001870045        0.0002580631        0.0000450376
  H        -0.0009467733       -0.0003424001       -0.0005322218
  H         0.0003582426        0.0000099618       -0.0002397662
  H         0.0010605568       -0.0002568378        0.0003331030
       5
 i =        5, time =        2.500, E =        -8.0598131467
  C        -0.0000276668       -0.0000072100        0.0000475961
  H         0.0001997459        0.0002901312        0.0001398602
  H        -0.0009152521       -0.0003236946       -0.0004933105
  H         0.0000460008        0.0003340470       -0.0005968727
  H         0.0009566465       -0.0001774138        0.0003906879
       5
 i =        6, time =        3.000, E =        -8.0603262143
  C         0.0000014899       -0.0000434376        0.0000600001
  H         0.0001881986        0.0003043154        0.0002244274
  H        -0.0008621636       -0.0002843514       -0.0004649711
  H        -0.0002285881        0.0006211032       -0.0009205010
  H         0.0008267215       -0.0000805750        0.0004595088
       5
 i =        7, time =        3.500, E =        -8.0610358772
  C         0.0000268226       -0.0000749142        0.0000683916
  H         0.0001509994        0.0002999942        0.0002953401
  H        -0.0007880174       -0.0002267219       -0.0004466506
  H        -0.0004349697        0.0008376643       -0.0011760682
  H         0.0006765627        0.0000261456        0.0005318508
       5
 i =        8, time =        4.000, E =        -8.0615822909
  C         0.0000464632       -0.0000991314        0.0000715056
  H         0.0000885040        0.0002779838        0.0003509260
  H        -0.0006945795       -0.0001540786       -0.0004369460
  H        -0.0005552513        0.0009645072       -0.0013451081
  H         0.0005140037        0.0001351129        0.0006003494
       5
 i =        9, time =        4.500, E =        -8.0617502698
  C         0.0000595684       -0.0001147656        0.0000690727
  H         0.0000026089        0.0002402721        0.0003911531
  H        -0.0005854039       -0.0000703920       -0.0004338143
  H        -0.0005846296        0.0009981423       -0.0014248732
  H         0.0003484999        0.0002387190        0.0006584374
       5
 i =       10, time =        5.000, E =        -8.0615125979
  C         0.0000660858       -0.0001214540        0.0000616049
  H        -0.0001034823        0.0001897297        0.0004174190
  H        -0.0004657885        0.0000198618       -0.0004347641
  H        -0.0005288991        0.0009472317       -0.0014212026
  H         0.0001902542        0.0003294716        0.0007006756
       5
 i =       11, time =        5.500, E =        -8.0609722981
  C         0.0000664431       -0.0001194676        0.0000500612
  H        -0.0002254801        0.0001298341        0.0004322548
  H        -0.0003422483        0.0001118755       -0.0004370199
  H        -0.0004007633        0.0008264829       -0.0013416939
  H         0.0000493555        0.0004001503        0.0007228841
       5
 i =       12, time =        6.000, E =        -8.0602935082
  C         0.0000613009       -0.0001094352        0.0000355497
  H        -0.0003581816        0.0000644220        0.0004389810
  H        -0.0002218102        0.0002006659       -0.0004376690
  H        -0.0002162249        0.0006516784       -0.0011947344
  H        -0.0000649439        0.0004441280        0.0007220386
       5
 i =       13, time =        6.500, E =        -8.0596550910
  C         0.0000514234       -0.0000921879        0.0000191276
  H        -0.0004955883       -0.0000025201        0.0004413739
  H        -0.0001114220        0.0002812260       -0.0004337810
  H         0.0000080327        0.0004375914       -0.0009920028
  H        -0.0001449676        0.0004559489        0.0006961487
       5
 i =       14, time =        7.000, E =        -8.0592152105
  C         0.0000376516       -0.0000687154        0.0000016901
  H        -0.0006310243       -0.0000670467        0.0004433538
  H        -0.0000174720        0.0003487020       -0.0004225524
  H         0.0002559395        0.0001979088       -0.0007490544
  H        -0.0001854361        0.0004321617        0.0006443676
       5
 i =       15, time =        7.500, E =        -8.0590835564
  C         0.0000209459       -0.0000402020       -0.0000160691
  H        -0.0007574268       -0.0001254380        0.0004487008
  H         0.0000546303        0.0003986286       -0.0004015202
  H         0.0005122682       -0.0000542854       -0.0004831383
  H        -0.0001843773        0.0003722116        0.0005674852
       5
 i =       16, time =        8.000, E =        -8.0593073213
  C         0.0000024497       -0.0000080963       -0.0000336337
  H        -0.0008680087       -0.0001743885        0.0004607864
  H         0.0001008439        0.0004272584       -0.0003688562
  H         0.0007623461       -0.0003062117       -0.0002110808
  H        -0.0001438453        0.0002790790        0.0004686267
       5
 i =       17, time =        8.500, E =        -8.0598672578
  C        -0.0000164601        0.0000258214       -0.0000505812
  H        -0.0009574011       -0.0002112250        0.0004822883
  H         0.0001189370        0.0004320032       -0.0003237229
  H         0.0009920662       -0.0005452156        0.0000509783
  H        -0.0000701963        0.0001594669        0.0003537778
       5
 i =       18, time =        9.000, E =        -8.0606779764
  C        -0.0000341780        0.0000594170       -0.0000664479
  H        -0.0010229218       -0.0002341329        0.0005148832
  H         0.0001089026        0.0004119337       -0.0002666316
  H         0.0011888197       -0.0007584487        0.0002866502
  H         0.0000263504        0.0000232998        0.0002316836
       5
 i =       19, time =        9.500, E =        -8.0615916996
  C        -0.0000489519        0.0000902584       -0.0000805727
  H        -0.0010651171       -0.0002423279        0.0005589505
  H         0.0000731857        0.0003681955       -0.0001996988
  H         0.0013426359       -0.0009321775        0.0004782747
  H         0.0001329918       -0.0001174495        0.0001129177
       5
 i =       20, time =       10.000, E =        -8.0624067112
  C        -0.0000590270        0.0001157526       -0.0000919684
  H        -0.0010870191       -0.0002361558        0.0006133256
  H         0.0000166247        0.0003041888       -0.0001266995
  H         0.0014455209       -0.0010507906        0.0006065827
  H         0.0002361458       -0.0002503054        0.0000083952
       5
 i =       21, time =       10.500, E =        -8.0628899941
  C        -0.0000628453        0.0001333779       -0.0000992998
  H        -0.0010923951       -0.0002170937        0.0006751743
  H        -0.0000539755        0.0002253831       -0.0000528599
  H         0.0014884057       -0.0010967286        0.0006519030
  H         0.0003234168       -0.0003639690       -0.0000722453
       5
 i =       22, time =       11.000, E =        -8.0628420786
  C        -0.0000592921        0.0001410216       -0.0001010502
  H        -0.0010840187       -0.0001876109        0.0007400818
  H        -0.0001306414        0.0001387390        0.0000156445
  H         0.0014592852       -0.0010532997        0.0005974385
  H         0.0003853024       -0.0004497612       -0.0001219545
       5
 i =       23, time =       11.500, E =        -8.0622157727
  C        -0.0000479745        0.0001374065       -0.0000959210
  H        -0.0010629455       -0.0001509058        0.0008024981
  H        -0.0002052513        0.0000518340        0.0000724399
  H         0.0013475403       -0.0009107877        0.0004343283
  H         0.0004162217       -0.0005025549       -0.0001369775
       5
 i =       24, time =       12.000, E =        -8.0612191136
  C        -0.0000294896        0.0001225307       -0.0000833974
  H        -0.0010290926       -0.0001105722        0.0008565961
  H        -0.0002705697       -0.0000281201        0.0001117948
  H         0.0011531927       -0.0006730683        0.0001672972
  H         0.0004147400       -0.0005210174       -0.0001168954
       5
 i =       25, time =       12.500, E =        -8.0602770859
  C        -0.0000055588        0.0000979570       -0.0000642621
  H        -0.0009825821       -0.0000702306        0.0008973598
  H        -0.0003210881       -0.0000951369        0.0001293495
  H         0.0008928922       -0.0003607728       -0.0001813285
  H         0.0003830891       -0.0005071556       -0.0000641363
       5
 i =       26, time =       13.000, E =        -8.0598195908
  C         0.0000211257        0.0000667362       -0.0000407397
  H        -0.0009249264       -0.0000331975        0.0009214806
  H        -0.0003535074       -0.0001450261        0.0001225651
  H         0.0005973529       -0.0000091159       -0.0005716901
  H         0.0003262289       -0.0004654463        0.0000167525
       5
 i =       27, time =       13.500, E =        -8.0600287128
  C         0.0000473837        0.0000328613       -0.0000160686
  H        -0.0008593732       -0.0000022643        0.0009275769
  H        -0.0003668369       -0.0001756127        0.0000908215
  H         0.0003029934        0.0003387717       -0.0009524034
  H         0.0002508367       -0.0004018541        0.0001198166
       5
 i =       28, time =       14.000, E =        -8.0607358893
  C         0.0000702172        0.0000004093        0.0000063752
  H        -0.0007903321        0.0000204357        0.0009156810
  H        -0.0003621535       -0.0001866473        0.0000352353
  H         0.0000429818        0.0006409229       -0.0012724489
  H         0.0001644546       -0.0003230080        0.0002382564
       5
 i =       29, time =       14.500, E =        -8.0615480253
  C         0.0000873842       -0.0000272662        0.0000239826
  H        -0.0007223252        0.0000334896        0.0008863196
  H        -0.0003421384       -0.0001795146       -0.0000416689
  H        -0.0001590492        0.0008650520       -0.0014949849
  H         0.0000749017       -0.0002356834        0.0003647716
       5
 i =       30, time =       15.000, E =        -8.0620913814
  C         0.0000976508       -0.0000479723        0.0000354161
  H        -0.0006590833        0.0000362291        0.0008397610
  H        -0.0003105658       -0.0001568562       -0.0001363232
  H        -0.0002912738        0.0009938066       -0.0016053085
  H        -0.0000100582       -0.0001465505        0.0004917424
       5
 i =       31, time =       15.500, E =        -8.0621740037
  C         0.0001007001       -0.0000606702        0.0000405821
  H        -0.0006030965        0.0000287538        0.0007759060
  H        -0.0002718615       -0.0001221961       -0.0002444257
  H        -0.0003522760        0.0010255405       -0.0016066428
  H        -0.0000829037       -0.0000620628        0.0006113637
       5
 i =       32, time =       16.000, E =        -8.0617917958
  C         0.0000968610       -0.0000652053        0.0000402525
  H        -0.0005555346        0.0000119333        0.0006947898
  H        -0.0002307494       -0.0000795983       -0.0003611586
  H        -0.0003478273        0.0009707718       -0.0015088269
  H        -0.0001365828        0.0000116948        0.0007159388
       5
 i =       33, time =       16.500, E =        -8.0610686506
  C         0.0000868363       -0.0000619928        0.0000356100
  H        -0.0005163889       -0.0000126397        0.0005973766
  H        -0.0001919699       -0.0000333732       -0.0004813033
  H        -0.0002876959        0.0008462302       -0.0013225184
  H        -0.0001648994        0.0000692995        0.0007985333
       5
 i =       34, time =       17.000, E =        -8.0602039188
  C         0.0000715192       -0.0000517859        0.0000278909
  H        -0.0004847066       -0.0000427498        0.0004861687
  H        -0.0001600540        0.0000121568       -0.0005992921
  H        -0.0001833589        0.0006695314       -0.0010614447
  H        -0.0001630799        0.0001064275        0.0008540181
       5
 i =       35, time =       17.500, E =        -8.0594204561
  C         0.0000519112       -0.0000355603        0.0000181699
  H        -0.0004588448       -0.0000756947        0.0003653284
  H        -0.0001390984        0.0000528740       -0.0007093349
  H        -0.0000466255        0.0004565472       -0.0007443543
  H        -0.0001284885        0.0001204017        0.0008802438
       5
 i =       36, time =       18.000, E =        -8.0589113091
  C         0.0000291088       -0.0000144917        0.0000072729
  H        -0.0004367132       -0.0001084374        0.0002404023
  H        -0.0001325145        0.0000850967       -0.0008057998
  H         0.0001110683        0.0002212006       -0.0003926245
  H        -0.0000613325        0.0001107357        0.0008787053
       5
 i =       37, time =       18.500, E =        -8.0588034020
  C         0.0000043192        0.0000100171       -0.0000042046
  H        -0.0004160041       -0.0001377760        0.0001178092
  H        -0.0001427517        0.0001058310       -0.0008839975
  H         0.0002788761       -0.0000237521       -0.0000271340
  H         0.0000348853        0.0000794995        0.0008541832
       5
 i =       38, time =       19.000, E =        -8.0591401923
  C        -0.0000211276        0.0000362979       -0.0000157982
  H        -0.0003944111       -0.0001605419        0.0000042294
  H        -0.0001710180        0.0001130381       -0.0009412302
  H         0.0004464896       -0.0002659318        0.0003323655
  H         0.0001533760        0.0000313488        0.0008135803
       5
 i =       39, time =       19.500, E =        -8.0598722717
  C        -0.0000457898        0.0000623990       -0.0000270229
  H        -0.0003698449       -0.0001738448       -0.0000939519
  H        -0.0002170344        0.0001058925       -0.0009776110
  H         0.0006040273       -0.0004927217        0.0006659036
  H         0.0002846418       -0.0000268604        0.0007645450
       5
 i =       40, time =       20.000, E =        -8.0608535630
  C        -0.0000681619        0.0000861210       -0.0000372104
  H        -0.0003406536       -0.0001753480       -0.0001711809
  H        -0.0002789283        0.0000849431       -0.0009959889
  H         0.0007420168       -0.0006906781        0.0009519690
  H         0.0004176689       -0.0000869199        0.0007142862
       5
 i =       41, time =       20.500, E =        -8.0618531039
  C        -0.0000867523        0.0001051153       -0.0000453813
  H        -0.0003058395       -0.0001635497       -0.0002232380
  H        -0.0003533148        0.0000521313       -0.0010008555
  H         0.0008514162       -0.0008448154        0.0011678578
  H         0.0005414942       -0.0001404153        0.0006687720
       5
 i =       42, time =       21.000, E =        -8.0625977201
  C        -0.0001001844        0.0001170453       -0.0000502045
  H        -0.0002652472       -0.0001380324       -0.0002476584
  H        -0.0004355440        0.0000106504       -0.0009967703
  H         0.0009235233       -0.0009381566        0.0012924285
  H         0.0006467278       -0.0001798668        0.0006322793
       5
 i =       43, time =       21.500, E =        -8.0628475156
  C        -0.0001073259        0.0001198242       -0.0000501019
  H        -0.0002196818       -0.0000996257       -0.0002440818
  H        -0.0005200714       -0.0000353658       -0.0009870244
  H         0.0009499246       -0.0009527428        0.0013092941
  H         0.0007265825       -0.0001996359        0.0006071861
       5
 i =       44, time =       22.000, E =        -8.0624848285
  C        -0.0001074591        0.0001119353       -0.0000435428
  H        -0.0001709293       -0.0000504685       -0.0002143208
  H        -0.0006008319       -0.0000812699       -0.0009730982
  H         0.0009233038       -0.0008733465        0.0012080248
  H         0.0007770928       -0.0001964062        0.0005939932
       5
 i =       45, time =       22.500, E =        -8.0615944960
  C        -0.0001004903        0.0000928185       -0.0000295244
  H        -0.0001216411        0.0000061245       -0.0001621482
  H        -0.0006716091       -0.0001223897       -0.0009549586
  H         0.0008399555       -0.0006934279        0.0009852045
  H         0.0007966793       -0.0001692578        0.0005915444
       5
 i =       46, time =       23.000, E =        -8.0604966829
  C        -0.0000871580        0.0000632532       -0.0000081403
  H        -0.0000750942        0.0000659873       -0.0000929198
  H        -0.0007264242       -0.0001545230       -0.0009319069
  H         0.0007037331       -0.0004208081        0.0006492874
  H         0.0007855169       -0.0001194638        0.0005973875
       5
 i =       47, time =       23.500, E =        -8.0596597681
  C        -0.0000691245        0.0000255717        0.0000190094
  H        -0.0000348735        0.0001245216       -0.0000130356
  H        -0.0007600522       -0.0001743692       -0.0009035402
  H         0.0005291114       -0.0000801437        0.0002270979
  H         0.0007451645       -0.0000501012        0.0006082870
       5
 i =       48, time =       24.000, E =        -8.0594741823
  C        -0.0000488097       -0.0000165144        0.0000488763
  H        -0.0000045132        0.0001771801        0.0000706759
  H        -0.0007687278       -0.0001798213       -0.0008703978
  H         0.0003404144        0.0002894883       -0.0002356679
  H         0.0006786642        0.0000343887        0.0006207461
       5
 i =       49, time =       24.500, E =        -8.0600197171
  C        -0.0000289338       -0.0000585515        0.0000776204
  H         0.0000128490        0.0002199038        0.0001515304
  H        -0.0007508664       -0.0001700962       -0.0008340731
  H         0.0001664748        0.0006418833       -0.0006835623
  H         0.0005907335        0.0001286517        0.0006314567
       5
 i =       50, time =       25.000, E =        -8.0610190505
  C        -0.0000119223       -0.0000962539        0.0001016266
  H         0.0000147631        0.0002494594        0.0002234781
  H        -0.0007074910       -0.0001457141       -0.0007968022
  H         0.0000331133        0.0009340505       -0.0010659501
  H         0.0004877528        0.0002268546        0.0006376465
       5
 i =       51, time =       25.500, E =        -8.0620180829
  C         0.0000005541       -0.0001262919        0.0001183821
  H        -0.0000003192        0.0002636736        0.0002815115
  H        -0.0006420703       -0.0001083486       -0.0007608029
  H        -0.0000427835        0.0011360826       -0.0013483509
  H         0.0003774142        0.0003230286        0.0006372185
       5
 i =       52, time =       26.000, E =        -8.0626315163
  C         0.0000077271       -0.0001466593        0.0001268337
  H        -0.0000329067        0.0002615590        0.0003220096
  H        -0.0005597966       -0.0000606124       -0.0007276956
  H        -0.0000552599        0.0012364313       -0.0015141007
  H         0.0002680647        0.0004113076        0.0006287192
       5
 i =       53, time =       26.500, E =        -8.0626760227
  C         0.0000095940       -0.0001566011        0.0001272111
  H        -0.0000824150        0.0002433177        0.0003429527
  H        -0.0004667658       -0.0000058380       -0.0006981905
  H        -0.0000076772        0.0012399625       -0.0015588680
  H         0.0001680314        0.0004860786        0.0006111855
       5
 i =       54, time =       27.000, E =        -8.0621750857
  C         0.0000066584       -0.0001563007        0.0001205748
  H        -0.0001471928        0.0002102205        0.0003440962
  H        -0.0003692978        0.0000521462       -0.0006720336
  H         0.0000905716        0.0011605055       -0.0014873572
  H         0.0000849435        0.0005421445        0.0005839857
       5
 i =       55, time =       27.500, E =        -8.0613079789
  C        -0.0000003080       -0.0001465375        0.0001083483
  H        -0.0002246219        0.0001644104        0.0003269914
  H        -0.0002734552        0.0001092384       -0.0006481147
  H         0.0002272440        0.0010135614       -0.0013145466
  H         0.0000250881        0.0005749910        0.0005467563
       5
 i =       56, time =       28.000, E =        -8.0603304158
  C        -0.0000104185       -0.0001284314        0.0000919695
  H        -0.0003112951        0.0001086938        0.0002947547
  H        -0.0001847973        0.0001612736       -0.0006247011
  H         0.0003894900        0.0008134044       -0.0010640062
  H        -0.0000071991        0.0005812268        0.0004994944
       5
 i =       57, time =       28.500, E =        -8.0594890501
  C        -0.0000227344       -0.0001033091        0.0000726938
  H        -0.0004032631        0.0000463528        0.0002517486
  H        -0.0001081914        0.0002042593       -0.0005997558
  H         0.0005651084        0.0005736923       -0.0007611944
  H        -0.0000101432        0.0005591930        0.0004428171
       5
 i =       58, time =       29.000, E =        -8.0589692685
  C        -0.0000362734       -0.0000726645        0.0000515314
  H        -0.0004963525       -0.0000190277        0.0002031570
  H        -0.0000476166        0.0002346454       -0.0005712973
  H         0.0007431938        0.0003085181       -0.0004281982
  H         0.0000150183        0.0005095617        0.0003782524
       5
 i =       59, time =       29.500, E =        -8.0588773862
  C        -0.0000499995       -0.0000381727        0.0000292891
  H        -0.0005865602       -0.0000837331        0.0001545569
  H        -0.0000059163        0.0002496240       -0.0005377432
  H         0.0009146540        0.0000326177       -0.0000832503
  H         0.0000638777        0.0004356152        0.0003084257
       5
 i =       60, time =       30.000, E =        -8.0592367944
  C        -0.0000628282       -0.0000017154        0.0000066775
  H        -0.0006704956       -0.0001440989        0.0001115516
  H         0.0000154624        0.0002474413       -0.0004982078
  H         0.0010727752       -0.0002388171        0.0002573156
  H         0.0001291317        0.0003430560        0.0002370354
       5
 i =       61, time =       30.500, E =        -8.0599869303
  C        -0.0000736647        0.0000346107       -0.0000155467
  H        -0.0007457595       -0.0001967032        0.0000794058
  H         0.0000167002        0.0002276916       -0.0004527129
  H         0.0012132973       -0.0004902517        0.0005769833
  H         0.0002013679        0.0002393250        0.0001685753
       5
 i =       62, time =       31.000, E =        -8.0609831442
  C        -0.0000814705        0.0000685186       -0.0000364356
  H        -0.0008111061       -0.0002385789        0.0000626911
  H        -0.0000002839        0.0001915009       -0.0004022595
  H         0.0013330580       -0.0007059245        0.0008572455
  H         0.0002703119        0.0001325701        0.0001078441
       5
 i =       63, time =       31.500, E =        -8.0620002458
  C        -0.0000853486        0.0000976011       -0.0000547378
  H        -0.0008662613       -0.0002674325        0.0000649471
  H        -0.0000319258        0.0001415511       -0.0003487751
  H         0.0014270285       -0.0008701623        0.0010760725
  H         0.0003262744        0.0000305815        0.0000593585
       5
 i =       64, time =       32.000, E =        -8.0627542303
  C        -0.0000846295        0.0001194570       -0.0000688704
  H        -0.0009113897       -0.0002818548        0.0000883123
  H        -0.0000733344        0.0000819167       -0.0002949322
  H         0.0014858178       -0.0009677512        0.0012079214
  H         0.0003614749       -0.0000600817        0.0000268292
       5
 i =       65, time =       32.500, E =        -8.0629720069
  C        -0.0000789597        0.0001319056       -0.0000770432
  H        -0.0009463944       -0.0002814977        0.0001331852
  H        -0.0001188406        0.0000176563       -0.0002438598
  H         0.0014972022       -0.0009843441        0.0012275237
  H         0.0003709583       -0.0001346550        0.0000127769
       5
 i =       66, time =       33.000, E =        -8.0625170863
  C        -0.0000683883        0.0001333240       -0.0000775907
  H        -0.0009704519       -0.0002672000        0.0001979592
  H        -0.0001626758       -0.0000457546       -0.0001987952
  H         0.0014525201       -0.0009079342        0.0011172806
  H         0.0003529042       -0.0001903977        0.0000183545
       5
 i =       67, time =       33.500, E =        -8.0615073305
  C        -0.0000534432        0.0001230831       -0.0000694948
  H        -0.0009820625       -0.0002409741        0.0002789756
  H        -0.0001996862       -0.0001030620       -0.0001627117
  H         0.0013530934       -0.0007328853        0.0008741643
  H         0.0003084606       -0.0002265459        0.0000433467
       5
 i =       68, time =       34.000, E =        -8.0603232698
  C        -0.0000351611        0.0001019792       -0.0000529664
  H        -0.0009797424       -0.0002058637        0.0003707701
  H        -0.0002259403       -0.0001498235       -0.0001380072
  H         0.0012107649       -0.0004660901        0.0005131695
  H         0.0002412059       -0.0002440997        0.0000863062
       5
 i =       69, time =       34.500, E =        -8.0594666379
  C        -0.0000150194        0.0000724484       -0.0000298164
  H        -0.0009631008       -0.0001657196        0.0004666125
  H        -0.0002390758       -0.0001828246       -0.0001262853
  H         0.0010431029       -0.0001314336        0.0000679645
  H         0.0001564224       -0.0002455025        0.0001447898
       5
 i =       70, time =       35.000, E =        -8.0593189172
  C         0.0000052554        0.0000383404       -0.0000033208
  H        -0.0009336550       -0.0001248252        0.0005592822
  H        -0.0002383837       -0.0002002979       -0.0001282584
  H         0.0008683256        0.0002317734       -0.0004117725
  H         0.0000604637       -0.0002342631        0.0002155878
       5
 i =       71, time =       35.500, E =        -8.0599325864
  C         0.0000239755        0.0000042064        0.0000225101
  H        -0.0008949073       -0.0000874519        0.0006418738
  H        -0.0002246500       -0.0002019131       -0.0001437750
  H         0.0007022517        0.0005772726       -0.0008681539
  H        -0.0000397467       -0.0002145832        0.0002949164
       5
 i =       72, time =       36.000, E =        -8.0610040226
  C         0.0000397749       -0.0000256667        0.0000439934
  H        -0.0008515654       -0.0000574465        0.0007084285
  H        -0.0001998363       -0.0001885700       -0.0001719363
  H         0.0005565677        0.0008637697       -0.0012461869
  H        -0.0001371177       -0.0001909930        0.0003785837
       5
 i =       73, time =       36.500, E =        -8.0620486698
  C         0.0000517743       -0.0000480638        0.0000586612
  H        -0.0008083509       -0.0000378914        0.0007542346
  H        -0.0001667256       -0.0001621115       -0.0002112798
  H         0.0004379624        0.0010643090       -0.0015039405
  H        -0.0002246997       -0.0001680112        0.0004621493
       5
 i =       74, time =       37.000, E =        -8.0626521862
  C         0.0000595881       -0.0000611967        0.0000656059
  H        -0.0007689961       -0.0000308540        0.0007758367
  H        -0.0001286098       -0.0001250349       -0.0002599919
  H         0.0003483492        0.0011685619       -0.0016207106
  H        -0.0002959657       -0.0001498556        0.0005411351
       5
 i =       75, time =       37.500, E =        -8.0626415515
  C         0.0000632205       -0.0000645949        0.0000652626
  H        -0.0007357213       -0.0000372567        0.0007709107
  H        -0.0000890268       -0.0000802258       -0.0003161235
  H         0.0002860764        0.0011784286       -0.0016006635