 DBCSR| CPU Multiplication driver                                           BLAS (U)
 DBCSR| Multrec recursion limit                                              512 (U)
 DBCSR| Multiplication stack size                                           1000 (D)
 DBCSR| Maximum elements for images                                    UNLIMITED (U)
 DBCSR| Multiplicative factor virtual images                                   1 (U)
 DBCSR| Use multiplication densification                                       T (D)
 DBCSR| Multiplication size stacks                                             3 (U)
 DBCSR| Use memory pool for CPU allocation                                     F (U)
 DBCSR| OMP: Current number of threads                                         1
 DBCSR| OMP: Max number of threads                                             1
 DBCSR| Split modifier for TAS multiplication algorithm                  1.0E+00 (U)


  **** **** ******  **  PROGRAM STARTED AT               2026-01-25 22:23:27.112
 ***** ** ***  *** **   PROGRAM STARTED ON                 MacBook-Air-950.local
 **    ****   ******    PROGRAM STARTED BY                       mackenziehenley
 ***** **    ** ** **   PROGRAM PROCESS ID                                 23594
  **** **  *******  **  PROGRAM STARTED IN   /Users/mackenziehenley/cp2k/Methane

 CP2K| version string:                                       CP2K version 2025.1
 CP2K| source code revision number:                                             
 CP2K| cp2kflags: omp libint fftw3 libxc no_statm_access                        
 CP2K| is freely available from                            https://www.cp2k.org/
 CP2K| Program compiled at                                   2025-01-01 12:26:53
 CP2K| Program compiled on                                                      
 CP2K| Program compiled for                                                arm64
 CP2K| Data directory path      /opt/homebrew/Cellar/cp2k/2025.1/share/cp2k/data
 CP2K| Input file name                                             methane_2.inp

 GLOBAL| Force Environment number                                              1
 GLOBAL| Basis set file name                                    ./GTH_BASIS_SETS
 GLOBAL| Potential file name                                    ./GTH_POTENTIALS
 GLOBAL| MM Potential file name                                     MM_POTENTIAL
 GLOBAL| Coordinate file name                                      __STD_INPUT__
 GLOBAL| Method name                                                        CP2K
 GLOBAL| Project name                                                  METHANE_2
 GLOBAL| Run type                                                   ENERGY_FORCE
 GLOBAL| FFT library                                                       FFTW3
 GLOBAL| Diagonalization library                                       ScaLAPACK
 GLOBAL| DGEMM library                                                      BLAS
 GLOBAL| Orthonormality check for eigenvectors                          DISABLED
 GLOBAL| Matrix multiplication library                                 ScaLAPACK
 GLOBAL| All-to-all communication in single precision                          F
 GLOBAL| FFTs using library dependent lengths                                  F
 GLOBAL| Grid backend                                                       AUTO
 GLOBAL| Global print level                                               MEDIUM
 GLOBAL| MPI I/O enabled                                                       T
 GLOBAL| Total number of message passing processes                             1
 GLOBAL| Number of threads for this process                                    1
 GLOBAL| This output is from process                                           0
 GLOBAL| OpenMP stack size per thread (OMP_STACKSIZE)                        64M
 GLOBAL| CPU model name                                                  UNKNOWN
 GLOBAL| CPUID                                                              2000

 MEMORY| system memory details [Kb]
 MEMORY|                        rank 0           min           max       average
 MEMORY| MemTotal                    0             0             0             0
 MEMORY| MemFree                     0             0             0             0
 MEMORY| Buffers                     0             0             0             0
 MEMORY| Cached                      0             0             0             0
 MEMORY| Slab                        0             0             0             0
 MEMORY| SReclaimable                0             0             0             0
 MEMORY| MemLikelyFree               0             0             0             0


 *** Fundamental physical constants (SI units) ***

 *** Literature: B. J. Mohr and B. N. Taylor,
 ***             CODATA recommended values of the fundamental physical
 ***             constants: 2006, Web Version 5.1
 ***             http://physics.nist.gov/constants

 Speed of light in vacuum [m/s]                             2.99792458000000E+08
 Magnetic constant or permeability of vacuum [N/A**2]       1.25663706143592E-06
 Electric constant or permittivity of vacuum [F/m]          8.85418781762039E-12
 Planck constant (h) [J*s]                                  6.62606896000000E-34
 Planck constant (h-bar) [J*s]                              1.05457162825177E-34
 Elementary charge [C]                                      1.60217648700000E-19
 Electron mass [kg]                                         9.10938215000000E-31
 Electron g factor [ ]                                     -2.00231930436220E+00
 Proton mass [kg]                                           1.67262163700000E-27
 Fine-structure constant                                    7.29735253760000E-03
 Rydberg constant [1/m]                                     1.09737315685270E+07
 Avogadro constant [1/mol]                                  6.02214179000000E+23
 Boltzmann constant [J/K]                                   1.38065040000000E-23
 Atomic mass unit [kg]                                      1.66053878200000E-27
 Bohr radius [m]                                            5.29177208590000E-11

 *** Conversion factors ***

 [u] -> [a.u.]                                              1.82288848426455E+03
 [Angstrom] -> [Bohr] = [a.u.]                              1.88972613288564E+00
 [a.u.] = [Bohr] -> [Angstrom]                              5.29177208590000E-01
 [a.u.] -> [s]                                              2.41888432650478E-17
 [a.u.] -> [fs]                                             2.41888432650478E-02
 [a.u.] -> [J]                                              4.35974393937059E-18
 [a.u.] -> [N]                                              8.23872205491840E-08
 [a.u.] -> [K]                                              3.15774647902944E+05
 [a.u.] -> [kJ/mol]                                         2.62549961709828E+03
 [a.u.] -> [kcal/mol]                                       6.27509468713739E+02
 [a.u.] -> [Pa]                                             2.94210107994716E+13
 [a.u.] -> [bar]                                            2.94210107994716E+08
 [a.u.] -> [atm]                                            2.90362800883016E+08
 [a.u.] -> [eV]                                             2.72113838565563E+01
 [a.u.] -> [Hz]                                             6.57968392072181E+15
 [a.u.] -> [1/cm] (wave numbers)                            2.19474631370540E+05
 [a.u./Bohr**2] -> [1/cm]                                   5.14048714338585E+03
 

 CELL_TOP| Volume [angstrom^3]:                                      1000.000000
 CELL_TOP| Vector a [angstrom    10.000     0.000     0.000   |a| =    10.000000
 CELL_TOP| Vector b [angstrom     0.000    10.000     0.000   |b| =    10.000000
 CELL_TOP| Vector c [angstrom     0.000     0.000    10.000   |c| =    10.000000
 CELL_TOP| Angle (b,c), alpha [degree]:                                90.000000
 CELL_TOP| Angle (a,c), beta  [degree]:                                90.000000
 CELL_TOP| Angle (a,b), gamma [degree]:                                90.000000
 CELL_TOP| Numerically orthorhombic:                                         YES
 CELL_TOP| Periodicity                                                       XYZ

 GENERATE|  Preliminary Number of Bonds generated:                             0
 GENERATE|  Achieved consistency in connectivity generation.

 CELL| Volume [angstrom^3]:                                          1000.000000
 CELL| Vector a [angstrom]:      10.000     0.000     0.000   |a| =    10.000000
 CELL| Vector b [angstrom]:       0.000    10.000     0.000   |b| =    10.000000
 CELL| Vector c [angstrom]:       0.000     0.000    10.000   |c| =    10.000000
 CELL| Angle (b,c), alpha [degree]:                                    90.000000
 CELL| Angle (a,c), beta  [degree]:                                    90.000000
 CELL| Angle (a,b), gamma [degree]:                                    90.000000
 CELL| Numerically orthorhombic:                                             YES
 CELL| Periodicity                                                           XYZ

 CELL_REF| Volume [angstrom^3]:                                      1000.000000
 CELL_REF| Vector a [angstrom    10.000     0.000     0.000   |a| =    10.000000
 CELL_REF| Vector b [angstrom     0.000    10.000     0.000   |b| =    10.000000
 CELL_REF| Vector c [angstrom     0.000     0.000    10.000   |c| =    10.000000
 CELL_REF| Angle (b,c), alpha [degree]:                                90.000000
 CELL_REF| Angle (a,c), beta  [degree]:                                90.000000
 CELL_REF| Angle (a,b), gamma [degree]:                                90.000000
 CELL_REF| Numerically orthorhombic:                                         YES
 CELL_REF| Periodicity                                                       XYZ

 *******************************************************************************
 *******************************************************************************
 **                                                                           **
 **     #####                         ##              ##                      **
 **    ##   ##            ##          ##              ##                      **
 **   ##     ##                       ##            ######                    **
 **   ##     ##  ##   ##  ##   #####  ##  ##   ####   ##    #####    #####    **
 **   ##     ##  ##   ##  ##  ##      ## ##   ##      ##   ##   ##  ##   ##   **
 **   ##  ## ##  ##   ##  ##  ##      ####     ###    ##   ######   ######    **
 **    ##  ###   ##   ##  ##  ##      ## ##      ##   ##   ##       ##        **
 **     #######   #####   ##   #####  ##  ##  ####    ##    #####   ##        **
 **           ##                                                    ##        **
 **                                                                           **
 **                                                ... make the atoms dance   **
 **                                                                           **
 **            Copyright (C) by CP2K developers group (2000-2025)             **
 **                      J. Chem. Phys. 152, 194103 (2020)                    **
 **                                                                           **
 *******************************************************************************

 DFT| Spin restricted Kohn-Sham (RKS) calculation                            RKS
 DFT| Multiplicity                                                             1
 DFT| Number of spin states                                                    1
 DFT| Charge                                                                   0
 DFT| Self-interaction correction (SIC)                                       NO
 DFT| Cutoffs: density                                              1.000000E-10
 DFT|          gradient                                             1.000000E-10
 DFT|          tau                                                  1.000000E-10
 DFT|          cutoff_smoothing_range                               0.000000E+00
 DFT| XC density smoothing                                                  NONE
 DFT| XC derivatives                                                          PW

 FUNCTIONAL| PBE:
 FUNCTIONAL| J.P.Perdew, K.Burke, M.Ernzerhof, Phys. Rev. Letter, vol. 77, n 18,
 FUNCTIONAL|  pp. 3865-3868, (1996) {spin unpolarized}                          


 QS| Method:                                                                 GPW
 QS| Density plane wave grid type                        NON-SPHERICAL FULLSPACE
 QS| Number of grid levels:                                                    4
 QS| Density cutoff [a.u.]:                                                140.0
 QS| Multi grid cutoff [a.u.]: 1) grid level                               140.0
 QS|                           2) grid level                                46.7
 QS|                           3) grid level                                15.6
 QS|                           4) grid level                                 5.2
 QS| Grid level progression factor:                                          3.0
 QS| Relative density cutoff [a.u.]:                                        20.0
 QS| Interaction thresholds: eps_pgf_orb:                                1.0E-05
 QS|                         eps_filter_matrix:                          0.0E+00
 QS|                         eps_core_charge:                            1.0E-12
 QS|                         eps_rho_gspace:                             1.0E-10
 QS|                         eps_rho_rspace:                             1.0E-10
 QS|                         eps_gvg_rspace:                             1.0E-05
 QS|                         eps_ppl:                                    1.0E-02
 QS|                         eps_ppnl:                                   1.0E-07


 ATOMIC KIND INFORMATION

  1. Atomic kind: C                                     Number of atoms:       1

     Orbital Basis Set                                                  DZVP-GTH

       Number of orbital shell sets:                                           2
       Number of orbital shells:                                               5
       Number of primitive Cartesian functions:                                5
       Number of Cartesian basis functions:                                   14
       Number of spherical basis functions:                                   13
       Norm type:                                                              2

       Normalised Cartesian orbitals:

                        Set   Shell   Orbital            Exponent    Coefficient

                          1       1    2s                4.336238       0.319274
                                                         1.288184      -0.025219
                                                         0.403777      -0.248447
                                                         0.118788      -0.057170

                          1       2    3s                4.336238       0.000000
                                                         1.288184       0.000000
                                                         0.403777       0.000000
                                                         0.118788       0.144208

                          1       3    3px               4.336238      -0.783226
                                                         1.288184      -0.542954
                                                         0.403777      -0.216197
                                                         0.118788      -0.040339
                          1       3    3py               4.336238      -0.783226
                                                         1.288184      -0.542954
                                                         0.403777      -0.216197
                                                         0.118788      -0.040339
                          1       3    3pz               4.336238      -0.783226
                                                         1.288184      -0.542954
                                                         0.403777      -0.216197
                                                         0.118788      -0.040339

                          1       4    4px               4.336238       0.000000
                                                         1.288184       0.000000
                                                         0.403777       0.000000
                                                         0.118788       0.099404
                          1       4    4py               4.336238       0.000000
                                                         1.288184       0.000000
                                                         0.403777       0.000000
                                                         0.118788       0.099404
                          1       4    4pz               4.336238       0.000000
                                                         1.288184       0.000000
                                                         0.403777       0.000000
                                                         0.118788       0.099404

                          2       1    3dx2              0.550000       0.578155
                          2       1    3dxy              0.550000       1.001394
                          2       1    3dxz              0.550000       1.001394
                          2       1    3dy2              0.550000       0.578155
                          2       1    3dyz              0.550000       1.001394
                          2       1    3dz2              0.550000       0.578155

       Atomic covalent radius [Angstrom]:                                  0.770

       Atomic van der Waals radius [Angstrom]:                             1.700

     GTH Potential information for                                    GTH-PBE-q4

       Description:                       Goedecker-Teter-Hutter pseudopotential
                                           Goedecker et al., PRB 54, 1703 (1996)
                                          Hartwigsen et al., PRB 58, 3641 (1998)
                                                      Krack, TCA 114, 145 (2005)

       Gaussian exponent of the core charge distribution:               4.364419
       Electronic configuration (s p d ...):                               2   2

       Parameters of the local part of the GTH pseudopotential:

                          rloc        C1          C2          C3          C4
                        0.338471   -8.803674    1.339211

       Parameters of the non-local part of the GTH pseudopotential:

                   l      r(l)      h(i,j,l)

                   0    0.302576    9.622487
                   1    0.291507

  2. Atomic kind: H                                     Number of atoms:       4

     Orbital Basis Set                                                  DZVP-GTH

       Number of orbital shell sets:                                           2
       Number of orbital shells:                                               3
       Number of primitive Cartesian functions:                                5
       Number of Cartesian basis functions:                                    5
       Number of spherical basis functions:                                    5
       Norm type:                                                              2

       Normalised Cartesian orbitals:

                        Set   Shell   Orbital            Exponent    Coefficient

                          1       1    1s                8.374435      -0.099425
                                                         1.805868      -0.148088
                                                         0.485253      -0.165568
                                                         0.165824      -0.102436

                          1       2    2s                8.374435       0.000000
                                                         1.805868       0.000000
                                                         0.485253       0.000000
                                                         0.165824       0.185202

                          2       1    2px               0.727000       0.956881
                          2       1    2py               0.727000       0.956881
                          2       1    2pz               0.727000       0.956881

       Atomic covalent radius [Angstrom]:                                  0.320

       Atomic van der Waals radius [Angstrom]:                             1.090

     GTH Potential information for                                    GTH-PBE-q1

       Description:                       Goedecker-Teter-Hutter pseudopotential
                                           Goedecker et al., PRB 54, 1703 (1996)
                                          Hartwigsen et al., PRB 58, 3641 (1998)
                                                      Krack, TCA 114, 145 (2005)

       Gaussian exponent of the core charge distribution:              12.500000
       Electronic configuration (s p d ...):                                   1

       Parameters of the local part of the GTH pseudopotential:

                          rloc        C1          C2          C3          C4
                        0.200000   -4.178900    0.724463


 MOLECULE KIND INFORMATION


 All atoms are their own molecule, skipping detailed information


 TOTAL NUMBERS AND MAXIMUM NUMBERS

  Total number of            - Atomic kinds:                                   2
                             - Atoms:                                          5
                             - Shell sets:                                    10
                             - Shells:                                        17
                             - Primitive Cartesian functions:                 25
                             - Cartesian basis functions:                     34
                             - Spherical basis functions:                     33

  Maximum angular momentum of- Orbital basis functions:                        2
                             - Local part of the GTH pseudopotential:          2
                             - Non-local part of the GTH pseudopotential:      0


 MODULE QUICKSTEP: ATOMIC COORDINATES IN ANGSTROM

   Atom Kind Element         X             Y             Z       Z(eff)     Mass
      1    1 C     6      5.000000      5.000000      5.000000   4.0000  12.0107
      2    2 H     1      5.620000      5.630000      5.630000   1.0000   1.0079
      3    2 H     1      4.370000      4.370000      5.630000   1.0000   1.0079
      4    2 H     1      4.370000      5.630000      4.370000   1.0000   1.0079
      5    2 H     1      5.630000      4.370000      4.370000   1.0000   1.0079



 SCF PARAMETERS         Density guess:                                    ATOMIC
                        --------------------------------------------------------
                        max_scf:                                              50
                        max_scf_history:                                       0
                        max_diis:                                              4
                        --------------------------------------------------------
                        eps_scf:                                        1.00E-05
                        eps_scf_history:                                0.00E+00
                        eps_diis:                                       1.00E-01
                        eps_eigval:                                     1.00E-05
                        --------------------------------------------------------
                        level_shift [a.u.]:                             0.000000
                        --------------------------------------------------------
                        No outer SCF

 PW_GRID| Information for grid number                                          1
 PW_GRID| Cutoff [a.u.]                                                    140.0
 PW_GRID| spherical cutoff:                                                   NO
 PW_GRID|   Bounds   1            -54      53                Points:         108
 PW_GRID|   Bounds   2            -54      53                Points:         108
 PW_GRID|   Bounds   3            -54      53                Points:         108
 PW_GRID| Volume element (a.u.^3)  0.5357E-02     Volume (a.u.^3)      6748.3346
 PW_GRID| Grid span                                                    FULLSPACE

 PW_GRID| Information for grid number                                          2
 PW_GRID| Number of the reference grid                                         1
 PW_GRID| Cutoff [a.u.]                                                     46.7
 PW_GRID| spherical cutoff:                                                   NO
 PW_GRID|   Bounds   1            -30      29                Points:          60
 PW_GRID|   Bounds   2            -30      29                Points:          60
 PW_GRID|   Bounds   3            -30      29                Points:          60
 PW_GRID| Volume element (a.u.^3)  0.3124E-01     Volume (a.u.^3)      6748.3346
 PW_GRID| Grid span                                                    FULLSPACE

 PW_GRID| Information for grid number                                          3
 PW_GRID| Number of the reference grid                                         1
 PW_GRID| Cutoff [a.u.]                                                     15.6
 PW_GRID| spherical cutoff:                                                   NO
 PW_GRID|   Bounds   1            -18      17                Points:          36
 PW_GRID|   Bounds   2            -18      17                Points:          36
 PW_GRID|   Bounds   3            -18      17                Points:          36
 PW_GRID| Volume element (a.u.^3)  0.1446         Volume (a.u.^3)      6748.3346
 PW_GRID| Grid span                                                    FULLSPACE

 PW_GRID| Information for grid number                                          4
 PW_GRID| Number of the reference grid                                         1
 PW_GRID| Cutoff [a.u.]                                                      5.2
 PW_GRID| spherical cutoff:                                                   NO
 PW_GRID|   Bounds   1            -10       9                Points:          20
 PW_GRID|   Bounds   2            -10       9                Points:          20
 PW_GRID|   Bounds   3            -10       9                Points:          20
 PW_GRID| Volume element (a.u.^3)  0.8435         Volume (a.u.^3)      6748.3346
 PW_GRID| Grid span                                                    FULLSPACE

 POISSON| Solver                                                        PERIODIC
 POISSON| Periodicity                                                        XYZ

 RS_GRID| Information for grid number                                          1
 RS_GRID|   Bounds   1            -54      53                Points:         108
 RS_GRID|   Bounds   2            -54      53                Points:         108
 RS_GRID|   Bounds   3            -54      53                Points:         108

 RS_GRID| Information for grid number                                          2
 RS_GRID|   Bounds   1            -30      29                Points:          60
 RS_GRID|   Bounds   2            -30      29                Points:          60
 RS_GRID|   Bounds   3            -30      29                Points:          60

 RS_GRID| Information for grid number                                          3
 RS_GRID|   Bounds   1            -18      17                Points:          36
 RS_GRID|   Bounds   2            -18      17                Points:          36
 RS_GRID|   Bounds   3            -18      17                Points:          36

 RS_GRID| Information for grid number                                          4
 RS_GRID|   Bounds   1            -10       9                Points:          20
 RS_GRID|   Bounds   2            -10       9                Points:          20
 RS_GRID|   Bounds   3            -10       9                Points:          20

 Number of electrons:                                                          8
 Number of occupied orbitals:                                                  4
 Number of molecular orbitals:                                                 4

 Number of orbital functions:                                                 33
 Number of independent orbital functions:                                     33

 Extrapolation method: initial_guess

 Atomic guess: The first density matrix is obtained in terms of atomic orbitals
               and electronic configurations assigned to each atomic kind

 Guess for atomic kind: C

 Electronic structure
    Total number of core electrons                                          2.00
    Total number of valence electrons                                       4.00
    Total number of electrons                                               6.00
    Multiplicity                                                   not specified
    S   [  2.00] 2.00
    P      2.00


 *******************************************************************************
                  Iteration          Convergence                     Energy [au]
 *******************************************************************************
                          1        0.106235                      -5.272405212569
                          2        0.679888E-01                  -5.277708169169
                          3        0.212343E-03                  -5.281501083680
                          4        0.134068E-06                  -5.281501120087

 Energy components [Hartree]           Total Energy ::           -5.281501120087
                                        Band Energy ::           -1.321316482653
                                     Kinetic Energy ::            3.408507697203
                                   Potential Energy ::           -8.690008817290
                                      Virial (-V/T) ::            2.549505410952
                                        Core Energy ::           -8.288024181094
                                          XC Energy ::           -1.375172985447
                                     Coulomb Energy ::            4.381696046454
                       Total Pseudopotential Energy ::          -11.730920507885
                       Local Pseudopotential Energy ::          -12.370839403443
                    Nonlocal Pseudopotential Energy ::            0.639918895558
                                        Confinement ::            0.343886295885

 Orbital energies  State     L     Occupation   Energy[a.u.]          Energy[eV]

                       1     0          2.000      -0.485371          -13.207624

                       1     1          2.000      -0.175287           -4.769801


 Total Electron Density at R=0:                                         0.000219

 Guess for atomic kind: H

 Electronic structure
    Total number of core electrons                                          0.00
    Total number of valence electrons                                       1.00
    Total number of electrons                                               1.00
    Multiplicity                                                   not specified
    S      1.00


 *******************************************************************************
                  Iteration          Convergence                     Energy [au]
 *******************************************************************************
                          1        0.147148E-02                  -0.421727317871
                          2        0.157098E-03                  -0.421729551161
                          3        0.196245E-07                  -0.421729576905

 Energy components [Hartree]           Total Energy ::           -0.421729576905
                                        Band Energy ::           -0.187783985745
                                     Kinetic Energy ::            0.476588596328
                                   Potential Energy ::           -0.898318173233
                                      Virial (-V/T) ::            1.884892295272
                                        Core Energy ::           -0.480162322097
                                          XC Energy ::           -0.252039893580
                                     Coulomb Energy ::            0.310472638772
                       Total Pseudopotential Energy ::           -0.973405372468
                       Local Pseudopotential Energy ::           -0.973405372468
                    Nonlocal Pseudopotential Energy ::            0.000000000000
                                        Confinement ::            0.166544540437

 Orbital energies  State     L     Occupation   Energy[a.u.]          Energy[eV]

                       1     0          1.000      -0.187784           -5.109862


 Total Electron Density at R=0:                                         0.222991
 Re-scaling the density matrix to get the right number of electrons
                  # Electrons              Trace(P)               Scaling factor
                            8                 8.000                        1.000


 SCF WAVEFUNCTION OPTIMIZATION

  ----------------------------------- OT ---------------------------------------
  Minimizer      : CG                  : conjugate gradient
  Preconditioner : FULL_SINGLE_INVERSE : inversion of 
                                         H + eS - 2*(Sc)(c^T*H*c+const)(Sc)^T
  Precond_solver : DEFAULT
  Line search    : 2PNT                : 2 energies, one gradient
  stepsize       :    0.08000000                  energy_gap     :    0.08000000
  eps_taylor     :   0.10000E-15                  max_taylor     :             4
  ----------------------------------- OT ---------------------------------------

  Step     Update method      Time    Convergence         Total energy    Change
  ------------------------------------------------------------------------------
     1 OT CG       0.80E-01    0.5     0.37741373        -6.9801651487 -6.98E+00
     2 OT LS       0.10E+00    0.3                       -7.9074331069
     3 OT CG       0.10E+00    0.5     0.27995408        -7.7676674679 -7.88E-01
     4 OT LS       0.10E-02    0.3                       -7.0856787943
     5 OT CG       0.10E-02    0.5     0.28047118        -7.7673429623  3.25E-04
     6 OT LS       0.42E-02    0.3                       -7.7780850107
     7 OT CG       0.42E-02    0.5     0.26189945        -7.8092425158 -4.19E-02
     8 OT LS       0.17E-01    0.3                       -7.8456808260
     9 OT CG       0.17E-01    0.5     0.18052840        -7.9375952293 -1.28E-01
    10 OT LS       0.48E-01    0.3                       -7.9969451043
    11 OT CG       0.48E-01    0.5     0.04852172        -8.0370374072 -9.94E-02
    12 OT LS       0.12E+00    0.3                       -8.0477519074
    13 OT CG       0.12E+00    0.5     0.03393383        -8.0540880549 -1.71E-02
    14 OT LS       0.85E-01    0.3                       -8.0592071331
    15 OT CG       0.85E-01    0.5     0.01535516        -8.0605610087 -6.47E-03
    16 OT LS       0.83E-01    0.6                       -8.0618452830
    17 OT CG       0.83E-01    0.7     0.00947741        -8.0618465207 -1.29E-03
    18 OT LS       0.76E-01    0.3                       -8.0622971927
    19 OT CG       0.76E-01    0.5     0.00480683        -8.0623001352 -4.54E-04
    20 OT LS       0.93E-01    0.3                       -8.0624374754
    21 OT CG       0.93E-01    0.5     0.00241923        -8.0624419677 -1.42E-04
    22 OT LS       0.13E+00    0.3                       -8.0624885418
    23 OT CG       0.13E+00    0.5     0.00193137        -8.0624930014 -5.10E-05
    24 OT LS       0.54E-01    0.3                       -8.0624786427
    25 OT CG       0.54E-01    0.5     0.00052127        -8.0625063047 -1.33E-05
    26 OT LS       0.14E+00    0.3                       -8.0625078563
    27 OT CG       0.14E+00    0.5     0.00038543        -8.0625087315 -2.43E-06
    28 OT LS       0.90E-01    0.3                       -8.0625093880
    29 OT CG       0.90E-01    0.6     0.00025631        -8.0625096130 -8.81E-07
    30 OT LS       0.67E-01    0.4                       -8.0625098715
    31 OT CG       0.67E-01    0.5     0.00009537        -8.0625099046 -2.92E-07
    32 OT LS       0.11E+00    0.3                       -8.0625099605
    33 OT CG       0.11E+00    0.5     0.00006345        -8.0625099702 -6.56E-08
    34 OT LS       0.87E-01    0.3                       -8.0625099920
    35 OT CG       0.87E-01    0.5     0.00003270        -8.0625099934 -2.32E-08
    36 OT LS       0.75E-01    0.3                       -8.0625099986
    37 OT CG       0.75E-01    0.5     0.00002220        -8.0625099987 -5.32E-09
    38 OT LS       0.11E+00    0.3                       -8.0625100019
    39 OT CG       0.11E+00    0.5     0.00000747        -8.0625100022 -3.43E-09

  *** SCF run converged in    39 steps ***


  Electronic density on regular grids:         -7.9999999999        0.0000000001
  Core density on regular grids:                7.9999999995       -0.0000000005
  Total charge density on r-space grids:       -0.0000000004
  Total charge density g-space grids:          -0.0000000004

  Overlap energy of the core charge distribution:               0.00000126315557
  Self energy of the core charge distribution:                -18.97690376224277
  Core Hamiltonian energy:                                      6.19186256506384
  Hartree energy:                                               7.91263388851128
  Exchange-correlation energy:                                 -3.19010395665593

  Total energy:                                                -8.06251000216801

 !-----------------------------------------------------------------------------!
                     Mulliken Population Analysis

 #  Atom  Element  Kind  Atomic population                           Net charge
       1     C        1          4.500182                             -0.500182
       2     H        2          0.874037                              0.125963
       3     H        2          0.875425                              0.124575
       4     H        2          0.875421                              0.124579
       5     H        2          0.874935                              0.125065
 # Total charge                              8.000000                 -0.000000

 !-----------------------------------------------------------------------------!

 !-----------------------------------------------------------------------------!
                           Hirshfeld Charges

  #Atom  Element  Kind  Ref Charge     Population                    Net charge
      1       C      1       4.000          5.781                        -1.781
      2       H      2       1.000          0.551                         0.449
      3       H      2       1.000          0.551                         0.449
      4       H      2       1.000          0.551                         0.449
      5       H      2       1.000          0.551                         0.449

  Total Charge                                                            0.015
 !-----------------------------------------------------------------------------!

 ENERGY| Total FORCE_EVAL ( QS ) energy [hartree]             -8.062510002466794

 FORCES| Atomic forces [hartree/bohr]
 FORCES|   Atom     x               y               z               |f|
 FORCES|      1 -2.65470490E-03 -2.00604152E-03 -2.00693901E-03   3.88580299E-03
 FORCES|      2  9.41716666E-03  8.75543470E-03  8.75599216E-03   1.55566084E-02
 FORCES|      3 -6.81088408E-03 -6.77322943E-03  6.40939575E-03   1.15475163E-02
 FORCES|      4 -6.81077334E-03  6.40934940E-03 -6.77268125E-03   1.15471037E-02
 FORCES|      5  6.84342293E-03 -6.40651593E-03 -6.40681768E-03   1.13544351E-02
 FORCES| Sum    -1.57727340E-05 -2.10027835E-05 -2.10500307E-05
 FORCES| Total atomic force                                       3.36600631E-05

 -------------------------------------------------------------------------------
 -                                                                             -
 -                                DBCSR STATISTICS                             -
 -                                                                             -
 -------------------------------------------------------------------------------
 COUNTER                                    TOTAL       BLAS       SMM       ACC
 flops    13 x     4 x     4                  416     100.0%      0.0%      0.0%     
 flops     5 x     4 x     4                  640     100.0%      0.0%      0.0%     
 flops     4 x     4 x     4                27136     100.0%      0.0%      0.0%     
 flops    13 x     5 x     4                43680     100.0%      0.0%      0.0%     
 flops     5 x    13 x     4                43680     100.0%      0.0%      0.0%     
 flops    13 x    13 x     4                56784     100.0%      0.0%      0.0%     
 flops     5 x     5 x     4                84000     100.0%      0.0%      0.0%     
 flops    13 x     4 x    13                89232     100.0%      0.0%      0.0%     
 flops     4 x     4 x    33               104544     100.0%      0.0%      0.0%     
 flops    13 x     4 x     5               137280     100.0%      0.0%      0.0%     
 flops     5 x     4 x    13               137280     100.0%      0.0%      0.0%     
 flops    33 x     4 x     4               144672     100.0%      0.0%      0.0%     
 flops    33 x     4 x    33               182952     100.0%      0.0%      0.0%     
 flops     5 x     4 x     5               211200     100.0%      0.0%      0.0%     
 flops inhomo. stacks                           0       0.0%      0.0%      0.0%
 flops total                         1.263496E+06     100.0%      0.0%      0.0%
 flops max/rank                      1.263496E+06     100.0%      0.0%      0.0%
 matmuls inhomo. stacks                         0       0.0%      0.0%      0.0%
 matmuls total                               2754     100.0%      0.0%      0.0%
 number of processed stacks                   903     100.0%      0.0%      0.0%
 average stack size                                     3.0       0.0       0.0
 marketing flops                     1.402312E+06
 -------------------------------------------------------------------------------
 # multiplications                            579
 max memory usage/rank               0.000000E+00
 # max total images/rank                        1
 # max 3D layers                                1
 # MPI messages exchanged                       0
 -------------------------------------------------------------------------------

 -------------------------------------------------------------------------------
 -                                                                             -
 -                                DBM STATISTICS                               -
 -                                                                             -
 -------------------------------------------------------------------------------
    M  x    N  x    K                                          COUNT     PERCENT
 -------------------------------------------------------------------------------

 -------------------------------------------------------------------------------
 -                                                                             -
 -                                GRID STATISTICS                              -
 -                                                                             -
 -------------------------------------------------------------------------------
 LP    KERNEL             BACKEND                              COUNT     PERCENT
 0     collocate ortho    CPU                                   5840      26.06%
 1     collocate ortho    CPU                                   5760      25.71%
 1     integrate ortho    CPU                                   3026      13.50%
 0     integrate ortho    CPU                                   2920      13.03%
 2     collocate ortho    CPU                                   2560      11.43%
 2     integrate ortho    CPU                                   1424       6.36%
 3     collocate ortho    CPU                                    480       2.14%
 3     integrate ortho    CPU                                    304       1.36%
 4     collocate ortho    CPU                                     40       0.18%
 4     integrate ortho    CPU                                     32       0.14%
 0     collocate general  CPU                                     10       0.04%
 1     integrate general  CPU                                      5       0.02%
 0     integrate general  CPU                                      5       0.02%
 5     integrate ortho    CPU                                      1       0.00%
 -------------------------------------------------------------------------------

 MEMORY| Estimated peak process memory [MiB]                                   0

 -------------------------------------------------------------------------------
 ----                             MULTIGRID INFO                            ----
 -------------------------------------------------------------------------------
 count for grid        1:           1464          cutoff [a.u.]          140.00
 count for grid        2:           1118          cutoff [a.u.]           46.67
 count for grid        3:            498          cutoff [a.u.]           15.56
 count for grid        4:             95          cutoff [a.u.]            5.19
 total gridlevel count  :           3175

 -------------------------------------------------------------------------------
 -                                                                             -
 -                           R E F E R E N C E S                               -
 -                                                                             -
 -------------------------------------------------------------------------------
 
 CP2K version 2025.1, the CP2K developers group (2025).
 CP2K is freely available from https://www.cp2k.org/ .
 
 T. D. Kuehne, M. Iannuzzi, M. Del Ben, V. V. Rybkin, P. Seewald, F. Stein, T. 
 Laino, R. Z. Khaliullin, O. Schuett, F. Schiffmann, D. Golze, J. Wilhelm, S. 
 Chulkov, M. H. Bani-Hashemian, V. Weber, U. Borstnik, M. Taillefumier, A. S. 
 Jakobovits, A. Lazzaro, H. Pabst, T. Mueller, R. Schade, M. Guidon, S. 
 Andermatt, N. Holmberg, G. K. Schenter, A. Hehn, A. Bussy, F. Belleflamme, G. 
 Tabacchi, A. Gloess, M. Lass, I. Bethune, C. J. Mundy, C. Plessl, M. Watkins, 
 J. VandeVondele, M. Krack, J. Hutter.
 J. Chem. Phys. 152, 194103 (2020).
 CP2K: An electronic structure and molecular dynamics software package - 
 Quickstep: Efficient and accurate electronic structure calculations.
 https://doi.org/10.1063/5.0007045

 O. Schuett, P. Messmer, J. Hutter, J. VandeVondele.
 Electronic Structure Calculations on Graphics Processing Units, 173-190 (2016).
 GPU-Accelerated Sparse Matrix-Matrix Multiplication for Linear Scaling Density 
 Functional Theory.
 https://doi.org/10.1002/9781118670712.ch8

 J. Hutter, M. Iannuzzi, F. Schiffmann, J. VandeVondele.
 WIREs Comput Mol Sci. 4, 15-25 (2014).
 CP2K: atomistic simulations of condensed matter systems.
 https://doi.org/10.1002/wcms.1159

 U. Borstnik, J. VandeVondele, V. Weber, J. Hutter.
 Parallel Comput. 40, 47-58 (2014).
 Sparse matrix multiplication: The distributed block-compressed sparse row 
 library.
 https://doi.org/10.1016/j.parco.2014.03.012

 J. VandeVondele, M. Krack, F. Mohamed, M. Parrinello, T. Chassaing, J. Hutter.
 Comput. Phys. Commun. 167, 103-128 (2005).
 QUICKSTEP: Fast and accurate density functional calculations using a mixed 
 Gaussian and plane waves approach.
 https://doi.org/10.1016/j.cpc.2004.12.014

 M. Krack.
 Theor. Chem. Acc. 114, 145-152 (2005).
 Pseudopotentials for H to Kr optimized for gradient-corrected 
 exchange-correlation functionals.
 https://doi.org/10.1007/s00214-005-0655-y

 M. Frigo, S. G. Johnson.
 Proc. IEEE 93, 216-231 (2005).
 The design and implementation of FFTW3.
 https://doi.org/10.1109/JPROC.2004.840301

 J. VandeVondele, J. Hutter.
 J. Chem. Phys. 118, 4365-4369 (2003).
 An efficient orbital transformation method for electronic structure 
 calculations.
 https://doi.org/10.1063/1.1543154

 C. Hartwigsen, S. Goedecker, J. Hutter.
 Phys. Rev. B 58, 3641-3662 (1998).
 Relativistic separable dual-space Gaussian pseudopotentials from H to Rn.
 https://doi.org/10.1103/PhysRevB.58.3641

 G. Lippert, J. Hutter, M. Parrinello.
 Mol. Phys. 92, 477-487 (1997).
 A hybrid Gaussian and plane wave density functional scheme.
 https://doi.org/10.1080/002689797170220

 S. Goedecker, M. Teter, J. Hutter.
 Phys. Rev. B 54, 1703-1710 (1996).
 Separable dual-space Gaussian pseudopotentials.
 https://doi.org/10.1103/PhysRevB.54.1703

 J. P. Perdew, K. Burke, M. Ernzerhof.
 Phys. Rev. Lett. 77, 3865-3868 (1996).
 Generalized gradient approximation made simple.
 https://doi.org/10.1103/PhysRevLett.77.3865


 -------------------------------------------------------------------------------
 -                                                                             -
 -                                T I M I N G                                  -
 -                                                                             -
 -------------------------------------------------------------------------------
 SUBROUTINE                       CALLS  ASD         SELF TIME        TOTAL TIME
                                MAXIMUM       AVERAGE  MAXIMUM  AVERAGE  MAXIMUM
 CP2K                                 1  1.0    0.004    0.004   17.126   17.126
 qs_forces                            1  2.0    0.000    0.000   16.817   16.817
 qs_energies                          1  3.0    0.000    0.000   16.409   16.409
 scf_env_do_scf                       1  4.0    0.000    0.000   16.248   16.248
 scf_env_do_scf_inner_loop           39  5.0    0.003    0.003   15.768   15.768
 rebuild_ks_matrix                   40  6.9    0.000    0.000   13.805   13.805
 qs_ks_build_kohn_sham_matrix        40  7.9    0.003    0.003   13.804   13.804
 qs_ks_update_qs_env                 40  6.0    0.000    0.000   13.398   13.398
 qs_vxc_create                       40  8.9    0.000    0.000   11.600   11.600
 xc_rho_set_and_dset_create          40 10.9    0.091    0.091    9.065    9.065
 fft_wrap_pw1pw2                    510 11.0    0.004    0.004    7.471    7.471
 fft_wrap_pw1pw2_140                327 12.5    0.045    0.045    7.210    7.210
 xc_vxc_pw_create                    21  9.9    0.189    0.189    7.181    7.181
 xc_functional_eval                  40 11.9    0.000    0.000    5.996    5.996
 pbe_lda_eval                        40 12.9    5.996    5.996    5.996    5.996
 fft3d_s                            511 13.0    5.117    5.117    5.123    5.123
 xc_pw_derive                       183 11.9    0.001    0.001    4.489    4.489
 xc_exc_calc                         19 10.0    0.120    0.120    4.419    4.419
 qs_rho_update_rho_low               40  6.0    0.000    0.000    2.781    2.781
 calculate_rho_elec                  40  7.0    0.259    0.259    2.781    2.781
 xc_pw_divergence                    21 10.9    0.000    0.000    2.166    2.166
 density_rs2pw                       40  8.0    0.001    0.001    2.123    2.123
 pw_scatter_s                       265 13.7    1.090    1.090    1.090    1.090
 sum_up_and_integrate                21  8.9    0.000    0.000    0.908    0.908
 pw_gather_s                        245 12.2    0.897    0.897    0.897    0.897
 integrate_v_rspace                  21  9.9    0.001    0.001    0.873    0.873
 pw_poisson_solve                    40  8.9    0.000    0.000    0.770    0.770
 potential_pw2rs                     21 10.9    0.003    0.003    0.630    0.630
 pw_derive                          303 12.1    0.624    0.624    0.624    0.624
 init_scf_loop                        1  5.0    0.000    0.000    0.480    0.480
 pw_copy                            505 11.4    0.443    0.443    0.443    0.443
 qs_ks_update_qs_env_forces           1  3.0    0.000    0.000    0.408    0.408
 grid_collocate_task_list            40  8.0    0.399    0.399    0.399    0.399
 pw_poisson_set                      41  9.8    0.000    0.000    0.367    0.367
 -------------------------------------------------------------------------------

 The number of warnings for this run is : 0
 
 -------------------------------------------------------------------------------
  **** **** ******  **  PROGRAM ENDED AT                 2026-01-25 22:23:44.355
 ***** ** ***  *** **   PROGRAM RAN ON                     MacBook-Air-950.local
 **    ****   ******    PROGRAM RAN BY                           mackenziehenley
 ***** **    ** ** **   PROGRAM PROCESS ID                                 23594
  **** **  *******  **  PROGRAM STOPPED IN   /Users/mackenziehenley/cp2k/Methane
