 DBCSR| CPU Multiplication driver                                           BLAS (U)
 DBCSR| Multrec recursion limit                                              512 (U)
 DBCSR| Multiplication stack size                                           1000 (D)
 DBCSR| Maximum elements for images                                    UNLIMITED (U)
 DBCSR| Multiplicative factor virtual images                                   1 (U)
 DBCSR| Use multiplication densification                                       T (D)
 DBCSR| Multiplication size stacks                                             3 (U)
 DBCSR| Use memory pool for CPU allocation                                     F (U)
 DBCSR| OMP: Current number of threads                                         8
 DBCSR| OMP: Max number of threads                                             8
 DBCSR| Split modifier for TAS multiplication algorithm                  1.0E+00 (U)


  **** **** ******  **  PROGRAM STARTED AT               2026-02-04 19:04:41.571
 ***** ** ***  *** **   PROGRAM STARTED ON         hyacinth-6t9hh.device.utk.edu
 **    ****   ******    PROGRAM STARTED BY                       mackenziehenley
 ***** **    ** ** **   PROGRAM PROCESS ID                                 87303
  **** **  *******  **  PROGRAM STARTED IN     /Users/mackenziehenley/cp2k/IceIh

 CP2K| version string:                                       CP2K version 2025.1
 CP2K| source code revision number:                                             
 CP2K| cp2kflags: omp libint fftw3 libxc no_statm_access                        
 CP2K| is freely available from                            https://www.cp2k.org/
 CP2K| Program compiled at                                   2025-01-01 12:26:53
 CP2K| Program compiled on                                                      
 CP2K| Program compiled for                                                arm64
 CP2K| Data directory path      /opt/homebrew/Cellar/cp2k/2025.1/share/cp2k/data
 CP2K| Input file name                                          ice_titan_md.inp

 GLOBAL| Force Environment number                                              1
 GLOBAL| Basis set file name                                           BASIS_SET
 GLOBAL| Potential file name                                           POTENTIAL
 GLOBAL| MM Potential file name                                     MM_POTENTIAL
 GLOBAL| Coordinate file name                                    ice_relaxed.xyz
 GLOBAL| Method name                                                        CP2K
 GLOBAL| Project name                                               Titan_Ice_MD
 GLOBAL| Run type                                                             MD
 GLOBAL| FFT library                                                       FFTW3
 GLOBAL| Diagonalization library                                       ScaLAPACK
 GLOBAL| DGEMM library                                                      BLAS
 GLOBAL| Orthonormality check for eigenvectors                          DISABLED
 GLOBAL| Matrix multiplication library                                 ScaLAPACK
 GLOBAL| All-to-all communication in single precision                          F
 GLOBAL| FFTs using library dependent lengths                                  F
 GLOBAL| Grid backend                                                       AUTO
 GLOBAL| Global print level                                                  LOW
 GLOBAL| MPI I/O enabled                                                       T
 GLOBAL| Total number of message passing processes                             1
 GLOBAL| Number of threads for this process                                    8
 GLOBAL| This output is from process                                           0
 GLOBAL| OpenMP stack size per thread (OMP_STACKSIZE)                    default
 GLOBAL| CPU model name                                                  UNKNOWN
 GLOBAL| CPUID                                                              2000

 MEMORY| system memory details [Kb]
 MEMORY|                        rank 0           min           max       average
 MEMORY| MemTotal                    0             0             0             0
 MEMORY| MemFree                     0             0             0             0
 MEMORY| Buffers                     0             0             0             0
 MEMORY| Cached                      0             0             0             0
 MEMORY| Slab                        0             0             0             0
 MEMORY| SReclaimable                0             0             0             0
 MEMORY| MemLikelyFree               0             0             0             0


 GENERATE|  Preliminary Number of Bonds generated:                             0
 GENERATE|  Achieved consistency in connectivity generation.


              #####   #####        # #     # ######  ######   #####  
             #     # #     #      #  ##    # #     # #     # #     # 
             #     # #           #   # #   # #     # #     # #     # 
             #     #  #####     #    #  #  # #     # #     # #     # 
             #   # #       #   #     #   # # #     # #     # #     # 
             #    #  #     #  #      #    ## #     # #     # #     # 
              #### #  #####  #       #     # ######  ######   #####  
                                                                     
                              T. Laino and J. Hutter                 
                                                                     
                                   2008 - 2015                       


 SEMIEMPIRICAL|                             Coulomb Integral cutoff/taper values
 SEMIEMPIRICAL| Cutoff [a.u.]                                             22.677
 SEMIEMPIRICAL| Taper  [a.u.]                                             22.677
 SEMIEMPIRICAL| Range  [a.u.]                                              0.000


 SEMIEMPIRICAL|                     Exchange Integral cutoff/taper was redefined
 SEMIEMPIRICAL| Default value [a.u.]                                      22.677
 SEMIEMPIRICAL| New value [a.u.]                                           6.950


 SEMIEMPIRICAL|                            Exchange Integral cutoff/taper values
 SEMIEMPIRICAL| Cutoff [a.u.]                                              6.950
 SEMIEMPIRICAL| Taper  [a.u.]                                              6.950
 SEMIEMPIRICAL| Range  [a.u.]                                              0.000



 TOTAL NUMBERS AND MAXIMUM NUMBERS

  Total number of            - Atomic kinds:                                   2
                             - Atoms:                                         96
                             - Shell sets:                                   128
                             - Shells:                                       128
                             - Primitive Cartesian functions:                768
                             - Cartesian basis functions:                    192
                             - Spherical basis functions:                    192

  Maximum angular momentum of the orbital basis functions:                     1


 SCF PARAMETERS         Density guess:                                    ATOMIC
                        --------------------------------------------------------
                        max_scf:                                              50
                        max_scf_history:                                       0
                        max_diis:                                              4
                        --------------------------------------------------------
                        eps_scf:                                        1.00E-04
                        eps_scf_history:                                0.00E+00
                        eps_diis:                                       1.00E-01
                        eps_eigval:                                     1.00E-05
                        --------------------------------------------------------
                        level_shift [a.u.]:                             0.000000
                        --------------------------------------------------------
                        No outer SCF

 MD_PAR| Molecular dynamics protocol (MD input parameters)
 MD_PAR| Ensemble type                                                       NVT
 MD_PAR| Number of time steps                                               1000
 MD_PAR| Time step [fs]                                                 0.500000
 MD_PAR| Temperature [K]                                               94.000000
 MD_PAR| Temperature tolerance [K]                                      0.000000
 MD_PAR| Print MD information every                                    1 step(s)
 MD_PAR| File type   Print frequency [steps]                          File names
 MD_PAR| Coordinates          2                           Titan_Ice_MD-pos-1.xyz
 MD_PAR| Velocities           1                           Titan_Ice_MD-vel-1.xyz
 MD_PAR| Energies             1                              Titan_Ice_MD-1.ener
 MD_PAR| Dump                20                           Titan_Ice_MD-1.restart

 ROT| Rotational analysis information
 ROT| Principal axes and moments of inertia [a.u.]
 ROT|                           1                   2                   3
 ROT| Eigenvalues      4.32060607550E+07   7.93314247484E+07   1.02739172262E+08
 ROT|      x              0.190501462533     -0.847130212870     -0.496064103937
 ROT|      y             -0.086694718171      0.488826081501     -0.868062836369
 ROT|      z              0.977851327459      0.208373377585      0.019680368392
 ROT| Number of rotovibrational vectors                                        6

 DOF| Calculation of degrees of freedom
 DOF| Number of atoms                                                         96
 DOF| Number of intramolecular constraints                                     0
 DOF| Number of intermolecular constraints                                     0
 DOF| Invariants (translations + rotations)                                    3
 DOF| Degrees of freedom                                                     285

 DOF| Restraints information
 DOF| Number of intramolecular restraints                                      0
 DOF| Number of intermolecular restraints                                      0

 THERMOSTAT| Thermostat information for PARTICLES
 THERMOSTAT| Type of thermostat            Canonical Sampling/Velocity Rescaling
 THERMOSTAT| CSVR time constant [fs]                                  100.000000
 THERMOSTAT| Initial kinetic energy                           0.000000000000E+00
 THERMOSTAT| End of thermostat information for PARTICLES

 MD_VEL| Velocities initialization
 MD_VEL| Initial temperature [K]                                       94.000000
 MD_VEL| COM velocity            -0.0000000000     0.0000000000     0.0000000000

 Number of electrons:                                                        256
 Number of occupied orbitals:                                                128
 Number of molecular orbitals:                                               128

 Number of orbital functions:                                                192
 Number of independent orbital functions:                                    192

 Extrapolation method: initial_guess


 SCF WAVEFUNCTION OPTIMIZATION

  ----------------------------------- OT ---------------------------------------
  Minimizer      : DIIS                : direct inversion
                                         in the iterative subspace
                                         using   7 DIIS vectors
                                         safer DIIS on
  Preconditioner : FULL_SINGLE_INVERSE : inversion of 
                                         H + eS - 2*(Sc)(c^T*H*c+const)(Sc)^T
  Precond_solver : DEFAULT
  stepsize       :    0.08000000                  energy_gap     :    0.08000000
  eps_taylor     :   0.10000E-15                  max_taylor     :             4
  ----------------------------------- OT ---------------------------------------

  Step     Update method      Time    Convergence         Total energy    Change
  ------------------------------------------------------------------------------
     1 OT DIIS     0.80E-01    1.2     0.11583416      -321.4146390054 -3.21E+02
     2 OT DIIS     0.80E-01    0.2     0.17698760      -322.1460949823 -7.31E-01
     3 OT DIIS     0.80E-01    0.2     0.06437038      -334.1143293583 -1.20E+01
     4 OT DIIS     0.80E-01    0.2     0.06108377      -337.9533681648 -3.84E+00
     5 OT DIIS     0.80E-01    0.2     0.05325122      -341.0372975312 -3.08E+00
     6 OT DIIS     0.80E-01    0.3     0.05051002      -344.5918317919 -3.55E+00
     7 OT DIIS     0.80E-01    0.2     0.04364969      -349.1317412100 -4.54E+00
     8 OT DIIS     0.80E-01    0.2     0.04233798      -351.9407232535 -2.81E+00
     9 OT DIIS     0.80E-01    0.3     0.03805989      -355.0203886301 -3.08E+00
    10 OT DIIS     0.80E-01    0.2     0.03392105      -357.9228413884 -2.90E+00
    11 OT DIIS     0.80E-01    0.2     0.03068678      -361.5238541228 -3.60E+00
    12 OT DIIS     0.80E-01    0.2     0.03041234      -363.4437392819 -1.92E+00
    13 OT DIIS     0.80E-01    0.3     0.02325255      -366.5446497634 -3.10E+00
    14 OT DIIS     0.80E-01    0.2     0.02135572      -368.0430048061 -1.50E+00
    15 OT DIIS     0.80E-01    0.2     0.01718927      -369.5484499041 -1.51E+00
    16 OT DIIS     0.80E-01    0.3     0.01491580      -370.5257247432 -9.77E-01
    17 OT DIIS     0.80E-01    0.3     0.01171996      -371.4941693032 -9.68E-01
    18 OT DIIS     0.80E-01    0.2     0.01228800      -371.5920196024 -9.79E-02
    19 OT DIIS     0.80E-01    0.3     0.00842453      -372.0911560830 -4.99E-01
    20 OT DIIS     0.80E-01    0.2     0.00610254      -372.3554540926 -2.64E-01
    21 OT DIIS     0.80E-01    0.2     0.00547715      -372.4784446266 -1.23E-01
    22 OT DIIS     0.80E-01    0.3     0.00424688      -372.6002484315 -1.22E-01
    23 OT DIIS     0.80E-01    0.2     0.00342804      -372.6717458867 -7.15E-02
    24 OT DIIS     0.80E-01    0.3     0.00283120      -372.7207299214 -4.90E-02
    25 OT DIIS     0.80E-01    0.3     0.00246574      -372.7575478008 -3.68E-02
    26 OT DIIS     0.80E-01    0.2     0.00215250      -372.7910378682 -3.35E-02
    27 OT DIIS     0.80E-01    0.2     0.00192980      -372.8020582220 -1.10E-02
    28 OT DIIS     0.80E-01    0.2     0.00178311      -372.8188005067 -1.67E-02
    29 OT DIIS     0.80E-01    0.2     0.00171698      -372.8332280271 -1.44E-02
    30 OT DIIS     0.80E-01    0.2     0.00171782      -372.8391286240 -5.90E-03
    31 OT SD       0.80E-01    0.2     0.00172312      -372.8420945197 -2.97E-03
    32 OT SD       0.80E-01    0.3     0.00176317      -372.8479851819 -5.89E-03
    33 OT SD       0.80E-01    0.3     0.00182213      -372.8541830982 -6.20E-03
    34 OT SD       0.80E-01    0.2     0.00189965      -372.8608295882 -6.65E-03
    35 OT SD       0.80E-01    0.2     0.00199593      -372.8680782774 -7.25E-03
    36 OT SD       0.80E-01    0.2     0.00211114      -372.8761010393 -8.02E-03
    37 OT SD       0.80E-01    0.3     0.00224525      -372.8850916957 -8.99E-03
    38 OT SD       0.80E-01    0.2     0.00239779      -372.8952662648 -1.02E-02
    39 OT SD       0.80E-01    0.3     0.00256771      -372.9068613378 -1.16E-02
    40 OT SD       0.80E-01    0.2     0.00275338      -372.9201274633 -1.33E-02
    41 OT SD       0.80E-01    0.2     0.00295237      -372.9353189280 -1.52E-02
    42 OT SD       0.80E-01    0.2     0.00316168      -372.9526760926 -1.74E-02
    43 OT SD       0.80E-01    0.2     0.00337763      -372.9724027167 -1.97E-02
    44 OT SD       0.80E-01    0.2     0.00359659      -372.9946362448 -2.22E-02
    45 OT SD       0.80E-01    0.3     0.00381507      -373.0194140731 -2.48E-02
    46 OT SD       0.80E-01    0.3     0.00403183      -373.0466438775 -2.72E-02
    47 OT SD       0.80E-01    0.2     0.00424763      -373.0760690173 -2.94E-02
    48 OT SD       0.80E-01    0.3     0.00447033      -373.1072735682 -3.12E-02
    49 OT SD       0.80E-01    0.3     0.00471167      -373.1396446334 -3.24E-02
    50 OT SD       0.80E-01    0.2     0.00499908      -373.1724747750 -3.28E-02

  Leaving inner SCF loop after reaching    50 steps.


  Core-core repulsion energy [eV]:                        1653828.77824082341976
  Core Hamiltonian energy [eV]:                            -16507.16397110230173
  Two-electron integral energy [eV]:                     -3294952.30745104793459
  Electronic energy [eV]:                                -1663983.31769662629813

  Total energy [eV]:                                       -10154.53945580294021

  Atomic reference energy [eV]:                             10135.12221567713459
  Heat of formation [kcal/mol]:                              -447.77223016149190

 *** WARNING in qs_scf.F:609 :: SCF run NOT converged ***


 ENERGY| Total FORCE_EVAL ( QS ) energy [hartree]           -373.204828782108962

 MD_INI| MD initialization
 MD_INI| Potential energy [hartree]                          -0.373204828782E+03
 MD_INI| Kinetic energy [hartree]                             0.424194915233E-01
 MD_INI| Temperature [K]                                               94.000000
 MD_INI| Cell volume [bohr^3]                                 7.020230942695E+03
 MD_INI| Cell volume [ang^3]                                  1.040290883070E+03
 MD_INI| Cell lengths [bohr]      1.70755653E+01  1.70755653E+01  2.78016509E+01
 MD_INI| Cell lengths [ang]       9.03600000E+00  9.03600000E+00  1.47120000E+01
 MD_INI| Cell angles [deg]        9.00000000E+01  9.00000000E+01  1.20000000E+02

 Number of electrons:                                                        256
 Number of occupied orbitals:                                                128
 Number of molecular orbitals:                                               128

 Number of orbital functions:                                                192
 Number of independent orbital functions:                                    192

 Extrapolation method: ASPC


 SCF WAVEFUNCTION OPTIMIZATION

  ----------------------------------- OT ---------------------------------------
  Minimizer      : DIIS                : direct inversion
                                         in the iterative subspace
                                         using   7 DIIS vectors
                                         safer DIIS on
  Preconditioner : FULL_SINGLE_INVERSE : inversion of 
                                         H + eS - 2*(Sc)(c^T*H*c+const)(Sc)^T
  Precond_solver : DEFAULT
  stepsize       :    0.08000000                  energy_gap     :    0.08000000
  eps_taylor     :   0.10000E-15                  max_taylor     :             4
  ----------------------------------- OT ---------------------------------------

  Step     Update method      Time    Convergence         Total energy    Change
  ------------------------------------------------------------------------------
     1 OT DIIS     0.80E-01    1.0     0.01636563      -373.2050236766 -3.73E+02
     2 OT DIIS     0.80E-01    0.2     0.03601600      -373.4152810334 -2.10E-01
     3 OT DIIS     0.80E-01    0.3     0.01728755      -373.5795185363 -1.64E-01
     4 OT DIIS     0.80E-01    0.2     0.02485558      -373.5611025022  1.84E-02
     5 OT DIIS     0.80E-01    0.3     0.00842135      -373.6415733727 -8.05E-02
     6 OT DIIS     0.80E-01    0.3     0.00481384      -373.6602580651 -1.87E-02
     7 OT DIIS     0.80E-01    0.3     0.00242008      -373.6643489434 -4.09E-03
     8 OT DIIS     0.80E-01    0.3     0.00178653      -373.6655979772 -1.25E-03
     9 OT DIIS     0.80E-01    0.3     0.00184351      -373.6659868209 -3.89E-04
    10 OT DIIS     0.80E-01    0.3     0.00088066      -373.6667586458 -7.72E-04
    11 OT DIIS     0.80E-01    0.3     0.00124624      -373.6667793969 -2.08E-05
    12 OT DIIS     0.80E-01    0.3     0.00091598      -373.6671612046 -3.82E-04
    13 OT DIIS     0.80E-01    0.3     0.00073897      -373.6672937245 -1.33E-04
    14 OT DIIS     0.80E-01    0.2     0.00046635      -373.6673828729 -8.91E-05
    15 OT DIIS     0.80E-01    0.3     0.00089717      -373.6673039603  7.89E-05
    16 OT DIIS     0.80E-01    0.3     0.00051477      -373.6673874472 -8.35E-05
    17 OT DIIS     0.80E-01    0.3     0.00029526      -373.6674316757 -4.42E-05
    18 OT DIIS     0.80E-01    0.3     0.00019547      -373.6674348840 -3.21E-06
    19 OT DIIS     0.80E-01    0.3     0.00020069      -373.6674399629 -5.08E-06
    20 OT DIIS     0.80E-01    0.3     0.00010090      -373.6674491455 -9.18E-06
    21 OT DIIS     0.80E-01    0.3     0.00011896      -373.6674512181 -2.07E-06
    22 OT DIIS     0.80E-01    0.3     0.00007754      -373.6674547337 -3.52E-06

  *** SCF run converged in    22 steps ***


  Core-core repulsion energy [eV]:                        1653762.42893970641308
  Core Hamiltonian energy [eV]:                            -16514.14704394420551
  Two-electron integral energy [eV]:                     -3294832.58088244777173
  Electronic energy [eV]:                                -1663930.43748516798951

  Total energy [eV]:                                       -10168.00854546174560

  Atomic reference energy [eV]:                             10135.12221567713459
  Heat of formation [kcal/mol]:                              -758.37684109967699

 ENERGY| Total FORCE_EVAL ( QS ) energy [hartree]           -373.667455883907678

 MD| ***************************************************************************
 MD| Step number                                                               1
 MD| Time [fs]                                                          0.500000
 MD| Conserved quantity [hartree]                            -0.373625289960E+03
 MD| ---------------------------------------------------------------------------
 MD|                                          Instantaneous             Averages
 MD| CPU time per MD step [s]                     22.917084            22.917084
 MD| Energy drift per atom [K]          -0.152256229621E+04   0.000000000000E+00
 MD| Potential energy [hartree]         -0.373667455884E+03  -0.373667455884E+03
 MD| Kinetic energy [hartree]            0.423801896833E-01   0.423801896833E-01
 MD| Temperature [K]                              93.912909            93.912909
 MD| ***************************************************************************

 Number of electrons:                                                        256
 Number of occupied orbitals:                                                128
 Number of molecular orbitals:                                               128

 Number of orbital functions:                                                192
 Number of independent orbital functions:                                    192

 Extrapolation method: ASPC


 SCF WAVEFUNCTION OPTIMIZATION

  ----------------------------------- OT ---------------------------------------
  Minimizer      : DIIS                : direct inversion
                                         in the iterative subspace
                                         using   7 DIIS vectors
                                         safer DIIS on
  Preconditioner : FULL_SINGLE_INVERSE : inversion of 
                                         H + eS - 2*(Sc)(c^T*H*c+const)(Sc)^T
  Precond_solver : DEFAULT
  stepsize       :    0.08000000                  energy_gap     :    0.08000000
  eps_taylor     :   0.10000E-15                  max_taylor     :             4
  ----------------------------------- OT ---------------------------------------

  Step     Update method      Time    Convergence         Total energy    Change
  ------------------------------------------------------------------------------
     1 OT DIIS     0.80E-01    1.0     0.01430685      -373.5025531345 -3.74E+02
     2 OT DIIS     0.80E-01    0.3     0.03303186      -373.2970529552  2.06E-01
     3 OT DIIS     0.80E-01    0.3     0.00448624      -373.6052410399 -3.08E-01
     4 OT DIIS     0.80E-01    0.3     0.00457825      -373.6191386152 -1.39E-02
     5 OT DIIS     0.80E-01    0.2     0.00240652      -373.6462328975 -2.71E-02
     6 OT DIIS     0.80E-01    0.3     0.00235369      -373.6586700712 -1.24E-02
     7 OT DIIS     0.80E-01    0.3     0.00093165      -373.6620217819 -3.35E-03
     8 OT DIIS     0.80E-01    0.3     0.00100241      -373.6638134537 -1.79E-03
     9 OT DIIS     0.80E-01    0.3     0.00062845      -373.6639917750 -1.78E-04
    10 OT DIIS     0.80E-01    0.3     0.00040381      -373.6646618987 -6.70E-04
    11 OT DIIS     0.80E-01    0.3     0.00028961      -373.6648283566 -1.66E-04
    12 OT DIIS     0.80E-01    0.3     0.00031689      -373.6649155277 -8.72E-05
    13 OT DIIS     0.80E-01    0.3     0.00018020      -373.6649768259 -6.13E-05
    14 OT DIIS     0.80E-01    0.3     0.00020101      -373.6650066636 -2.98E-05
    15 OT DIIS     0.80E-01    0.3     0.00014265      -373.6650392192 -3.26E-05
    16 OT DIIS     0.80E-01    0.3     0.00008752      -373.6650620746 -2.29E-05

  *** SCF run converged in    16 steps ***


  Core-core repulsion energy [eV]:                        1653664.92561904853210
  Core Hamiltonian energy [eV]:                            -16513.36553461783114
  Two-electron integral energy [eV]:                     -3294639.00704465340823
  Electronic energy [eV]:                                -1663832.86905694450252

  Total energy [eV]:                                       -10167.94343789608683

  Atomic reference energy [eV]:                             10135.12221567713459
  Heat of formation [kcal/mol]:                              -756.87542484860967

 ENERGY| Total FORCE_EVAL ( QS ) energy [hartree]           -373.665073399017274

 MD| ***************************************************************************
 MD| Step number                                                               2
 MD| Time [fs]                                                          1.000000
 MD| Conserved quantity [hartree]                            -0.373624775876E+03
 MD| ---------------------------------------------------------------------------
 MD|                                          Instantaneous             Averages
 MD| CPU time per MD step [s]                      6.458316            14.687700
 MD| Energy drift per atom [K]          -0.152087130886E+04  -0.760435654431E+03
 MD| Potential energy [hartree]         -0.373665073399E+03  -0.373666264641E+03
 MD| Kinetic energy [hartree]            0.401585905055E-01   0.412693900944E-01
 MD| Temperature [K]                              88.989928            91.451418
 MD| ***************************************************************************

 Number of electrons:                                                        256
 Number of occupied orbitals:                                                128
 Number of molecular orbitals:                                               128

 Number of orbital functions:                                                192
 Number of independent orbital functions:                                    192

 Extrapolation method: ASPC


 SCF WAVEFUNCTION OPTIMIZATION

  ----------------------------------- OT ---------------------------------------
  Minimizer      : DIIS                : direct inversion
                                         in the iterative subspace
                                         using   7 DIIS vectors
                                         safer DIIS on
  Preconditioner : FULL_SINGLE_INVERSE : inversion of 
                                         H + eS - 2*(Sc)(c^T*H*c+const)(Sc)^T
  Precond_solver : DEFAULT
  stepsize       :    0.08000000                  energy_gap     :    0.08000000
  eps_taylor     :   0.10000E-15                  max_taylor     :             4
  ----------------------------------- OT ---------------------------------------

  Step     Update method      Time    Convergence         Total energy    Change
  ------------------------------------------------------------------------------
     1 OT DIIS     0.80E-01    1.0     0.00575650      -373.5675777317 -3.74E+02
     2 OT DIIS     0.80E-01    0.3     0.01043975      -373.5789842511 -1.14E-02
     3 OT DIIS     0.80E-01    0.3     0.00351757      -373.6112188585 -3.22E-02
     4 OT DIIS     0.80E-01    0.3     0.00458843      -373.6348758650 -2.37E-02
     5 OT DIIS     0.80E-01    0.3     0.00160540      -373.6585621497 -2.37E-02
     6 OT DIIS     0.80E-01    0.3     0.00133427      -373.6607964020 -2.23E-03
     7 OT DIIS     0.80E-01    0.3     0.00065184      -373.6615464310 -7.50E-04
     8 OT DIIS     0.80E-01    0.3     0.00047777      -373.6620796560 -5.33E-04
     9 OT DIIS     0.80E-01    0.3     0.00047692      -373.6621994421 -1.20E-04
    10 OT DIIS     0.80E-01    0.3     0.00030167      -373.6623490972 -1.50E-04
    11 OT DIIS     0.80E-01    0.3     0.00018414      -373.6624456205 -9.65E-05
    12 OT DIIS     0.80E-01    0.3     0.00014943      -373.6624914797 -4.59E-05
    13 OT DIIS     0.80E-01    0.3     0.00012299      -373.6625225569 -3.11E-05
    14 OT DIIS     0.80E-01    0.3     0.00011706      -373.6625419287 -1.94E-05
    15 OT DIIS     0.80E-01    0.3     0.00008927      -373.6625550673 -1.31E-05

  *** SCF run converged in    15 steps ***


  Core-core repulsion energy [eV]:                        1653687.33971448475495
  Core Hamiltonian energy [eV]:                            -16512.79587705291124
  Two-electron integral energy [eV]:                     -3294684.83811237988994
  Electronic energy [eV]:                                -1663855.21493324288167

  Total energy [eV]:                                       -10167.87521875804669

  Atomic reference energy [eV]:                             10135.12221567713459
  Heat of formation [kcal/mol]:                              -755.30225402816677

 ENERGY| Total FORCE_EVAL ( QS ) energy [hartree]           -373.662563283527561

 MD| ***************************************************************************
 MD| Step number                                                               3
 MD| Time [fs]                                                          1.500000
 MD| Conserved quantity [hartree]                            -0.373624786857E+03
 MD| ---------------------------------------------------------------------------
 MD|                                          Instantaneous             Averages
 MD| CPU time per MD step [s]                      6.134032            11.836477
 MD| Energy drift per atom [K]          -0.152090742892E+04  -0.101392624593E+04
 MD| Potential energy [hartree]         -0.373662563284E+03  -0.373665030855E+03
 MD| Kinetic energy [hartree]            0.374424366828E-01   0.399937389572E-01
 MD| Temperature [K]                              82.971033            88.624623
 MD| ***************************************************************************

 Number of electrons:                                                        256
 Number of occupied orbitals:                                                128
 Number of molecular orbitals:                                               128

 Number of orbital functions:                                                192
 Number of independent orbital functions:                                    192

 Extrapolation method: ASPC


 SCF WAVEFUNCTION OPTIMIZATION

  ----------------------------------- OT ---------------------------------------
  Minimizer      : DIIS                : direct inversion
                                         in the iterative subspace
                                         using   7 DIIS vectors
                                         safer DIIS on
  Preconditioner : FULL_SINGLE_INVERSE : inversion of 
                                         H + eS - 2*(Sc)(c^T*H*c+const)(Sc)^T
  Precond_solver : DEFAULT
  stepsize       :    0.08000000                  energy_gap     :    0.08000000
  eps_taylor     :   0.10000E-15                  max_taylor     :             4
  ----------------------------------- OT ---------------------------------------

  Step     Update method      Time    Convergence         Total energy    Change
  ------------------------------------------------------------------------------
     1 OT DIIS     0.80E-01    1.0     0.00267139      -373.6489583877 -3.74E+02
     2 OT DIIS     0.80E-01    0.3     0.00524228      -373.6459251807  3.03E-03
     3 OT DIIS     0.80E-01    0.2     0.00109923      -373.6544219580 -8.50E-03
     4 OT DIIS     0.80E-01    0.2     0.00121195      -373.6559314870 -1.51E-03
     5 OT DIIS     0.80E-01    0.3     0.00053536      -373.6585370735 -2.61E-03
     6 OT DIIS     0.80E-01    0.3     0.00044976      -373.6593241324 -7.87E-04
     7 OT DIIS     0.80E-01    0.3     0.00019076      -373.6594523550 -1.28E-04
     8 OT DIIS     0.80E-01    0.3     0.00015299      -373.6595359101 -8.36E-05
     9 OT DIIS     0.80E-01    0.3     0.00014251      -373.6595384628 -2.55E-06
    10 OT DIIS     0.80E-01    0.3     0.00005373      -373.6595603049 -2.18E-05

  *** SCF run converged in    10 steps ***


  Core-core repulsion energy [eV]:                        1653776.40522190113552
  Core Hamiltonian energy [eV]:                            -16511.94387420667772
  Two-electron integral energy [eV]:                     -3294864.51014964608476
  Electronic energy [eV]:                                -1663944.19894902990200

  Total energy [eV]:                                       -10167.79372712885197

  Atomic reference energy [eV]:                             10135.12221567713459
  Heat of formation [kcal/mol]:                              -753.42301226631878

 ENERGY| Total FORCE_EVAL ( QS ) energy [hartree]           -373.659564354325994

 MD| ***************************************************************************
 MD| Step number                                                               4
 MD| Time [fs]                                                          2.000000
 MD| Conserved quantity [hartree]                            -0.373624398199E+03
 MD| ---------------------------------------------------------------------------
 MD|                                          Instantaneous             Averages
 MD| CPU time per MD step [s]                      4.876423            10.096464
 MD| Energy drift per atom [K]          -0.151962901036E+04  -0.114035193703E+04
 MD| Potential energy [hartree]         -0.373659564354E+03  -0.373663664230E+03
 MD| Kinetic energy [hartree]            0.347504052092E-01   0.386829055202E-01
 MD| Temperature [K]                              77.005593            85.719866
 MD| ***************************************************************************

 Number of electrons:                                                        256
 Number of occupied orbitals:                                                128
 Number of molecular orbitals:                                               128

 Number of orbital functions:                                                192
 Number of independent orbital functions:                                    192

 Extrapolation method: ASPC


 SCF WAVEFUNCTION OPTIMIZATION

  ----------------------------------- OT ---------------------------------------
  Minimizer      : DIIS                : direct inversion
                                         in the iterative subspace
                                         using   7 DIIS vectors
                                         safer DIIS on
  Preconditioner : FULL_SINGLE_INVERSE : inversion of 
                                         H + eS - 2*(Sc)(c^T*H*c+const)(Sc)^T
  Precond_solver : DEFAULT
  stepsize       :    0.08000000                  energy_gap     :    0.08000000
  eps_taylor     :   0.10000E-15                  max_taylor     :             4
  ----------------------------------- OT ---------------------------------------

  Step     Update method      Time    Convergence         Total energy    Change
  ------------------------------------------------------------------------------
     1 OT DIIS     0.80E-01    1.0     0.00111443      -373.6556272537 -3.74E+02
     2 OT DIIS     0.80E-01    0.2     0.00213755      -373.6553929915  2.34E-04
     3 OT DIIS     0.80E-01    0.2     0.00052901      -373.6567687525 -1.38E-03
     4 OT DIIS     0.80E-01    0.2     0.00052791      -373.6571686886 -4.00E-04
     5 OT DIIS     0.80E-01    0.3     0.00033997      -373.6576339617 -4.65E-04
     6 OT DIIS     0.80E-01    0.3     0.00017352      -373.6579467801 -3.13E-04
     7 OT DIIS     0.80E-01    0.3     0.00007780      -373.6579622094 -1.54E-05

  *** SCF run converged in     7 steps ***


  Core-core repulsion energy [eV]:                        1653787.17487989598885
  Core Hamiltonian energy [eV]:                            -16511.99079346566577
  Two-electron integral energy [eV]:                     -3294885.86865433631465
  Electronic energy [eV]:                                -1663954.92512063402683

  Total energy [eV]:                                       -10167.75024073798340

  Atomic reference energy [eV]:                             10135.12221567713459
  Heat of formation [kcal/mol]:                              -752.42019219020892

 ENERGY| Total FORCE_EVAL ( QS ) energy [hartree]           -373.657973606415908

 MD| ***************************************************************************
 MD| Step number                                                               5
 MD| Time [fs]                                                          2.500000
 MD| Conserved quantity [hartree]                            -0.373624981225E+03
 MD| ---------------------------------------------------------------------------
 MD|                                          Instantaneous             Averages
 MD| CPU time per MD step [s]                      3.971492             8.871469
 MD| Energy drift per atom [K]          -0.152154676917E+04  -0.121659090346E+04
 MD| Potential energy [hartree]         -0.373657973606E+03  -0.373662526105E+03
 MD| Kinetic energy [hartree]            0.323286433009E-01   0.374120530763E-01
 MD| Temperature [K]                              71.639059            82.903704
 MD| ***************************************************************************

 Number of electrons:                                                        256
 Number of occupied orbitals:                                                128
 Number of molecular orbitals:                                               128

 Number of orbital functions:                                                192
 Number of independent orbital functions:                                    192

 Extrapolation method: ASPC


 SCF WAVEFUNCTION OPTIMIZATION

  ----------------------------------- OT ---------------------------------------
  Minimizer      : DIIS                : direct inversion
                                         in the iterative subspace
                                         using   7 DIIS vectors
                                         safer DIIS on
  Preconditioner : FULL_SINGLE_INVERSE : inversion of 
                                         H + eS - 2*(Sc)(c^T*H*c+const)(Sc)^T
  Precond_solver : DEFAULT
  stepsize       :    0.08000000                  energy_gap     :    0.08000000
  eps_taylor     :   0.10000E-15                  max_taylor     :             4
  ----------------------------------- OT ---------------------------------------

  Step     Update method      Time    Convergence         Total energy    Change
  ------------------------------------------------------------------------------
     1 OT DIIS     0.80E-01    1.0     0.00066965      -373.6562557436 -3.74E+02
     2 OT DIIS     0.80E-01    0.2     0.00129337      -373.6559913405  2.64E-04
     3 OT DIIS     0.80E-01    0.2     0.00021211      -373.6564951440 -5.04E-04
     4 OT DIIS     0.80E-01    0.3     0.00017836      -373.6565254117 -3.03E-05
     5 OT DIIS     0.80E-01    0.2     0.00012042      -373.6565487448 -2.33E-05
     6 OT DIIS     0.80E-01    0.2     0.00008899      -373.6566008728 -5.21E-05

  *** SCF run converged in     6 steps ***


  Core-core repulsion energy [eV]:                        1653780.15766610391438
  Core Hamiltonian energy [eV]:                            -16511.48873599226499
  Two-electron integral energy [eV]:                     -3294872.76425399444997
  Electronic energy [eV]:                                -1663947.87086298968643

  Total energy [eV]:                                       -10167.71319688572294

  Atomic reference energy [eV]:                             10135.12221567713459
  Heat of formation [kcal/mol]:                              -751.56594059559711

 ENERGY| Total FORCE_EVAL ( QS ) energy [hartree]           -373.656606586620910

 MD| ***************************************************************************
 MD| Step number                                                               6
 MD| Time [fs]                                                          3.000000
 MD| Conserved quantity [hartree]                            -0.373624893820E+03
 MD| ---------------------------------------------------------------------------
 MD|                                          Instantaneous             Averages
 MD| CPU time per MD step [s]                      3.666792             8.004023
 MD| Energy drift per atom [K]          -0.152125926415E+04  -0.126736896358E+04
 MD| Potential energy [hartree]         -0.373656606587E+03  -0.373661539519E+03
 MD| Kinetic energy [hartree]            0.311528316230E-01   0.363688495008E-01
 MD| Temperature [K]                              69.033505            80.592005
 MD| ***************************************************************************

 Number of electrons:                                                        256
 Number of occupied orbitals:                                                128
 Number of molecular orbitals:                                               128

 Number of orbital functions:                                                192
 Number of independent orbital functions:                                    192

 Extrapolation method: ASPC


 SCF WAVEFUNCTION OPTIMIZATION

  ----------------------------------- OT ---------------------------------------
  Minimizer      : DIIS                : direct inversion
                                         in the iterative subspace
                                         using   7 DIIS vectors
                                         safer DIIS on
  Preconditioner : FULL_SINGLE_INVERSE : inversion of 
                                         H + eS - 2*(Sc)(c^T*H*c+const)(Sc)^T
  Precond_solver : DEFAULT
  stepsize       :    0.08000000                  energy_gap     :    0.08000000
  eps_taylor     :   0.10000E-15                  max_taylor     :             4
  ----------------------------------- OT ---------------------------------------

  Step     Update method      Time    Convergence         Total energy    Change
  ------------------------------------------------------------------------------
     1 OT DIIS     0.80E-01    1.0     0.00062699      -373.6565485519 -3.74E+02
     2 OT DIIS     0.80E-01    0.2     0.00115586      -373.6563453254  2.03E-04
     3 OT DIIS     0.80E-01    0.2     0.00018514      -373.6567612576 -4.16E-04
     4 OT DIIS     0.80E-01    0.2     0.00014900      -373.6567868685 -2.56E-05
     5 OT DIIS     0.80E-01    0.3     0.00011093      -373.6568043985 -1.75E-05
     6 OT DIIS     0.80E-01    0.3     0.00007328      -373.6568392584 -3.49E-05

  *** SCF run converged in     6 steps ***


  Core-core repulsion energy [eV]:                        1653797.95888096303679
  Core Hamiltonian energy [eV]:                            -16511.73014419063838
  Two-electron integral energy [eV]:                     -3294907.89684092253447
  Electronic energy [eV]:                                -1663965.67856465186924

  Total energy [eV]:                                       -10167.71968368870330

  Atomic reference energy [eV]:                             10135.12221567713459
  Heat of formation [kcal/mol]:                              -751.71552983786478

 ENERGY| Total FORCE_EVAL ( QS ) energy [hartree]           -373.656844128410739

 MD| ***************************************************************************
 MD| Step number                                                               7
 MD| Time [fs]                                                          3.500000
 MD| Conserved quantity [hartree]                            -0.373625296213E+03
 MD| ---------------------------------------------------------------------------
 MD|                                          Instantaneous             Averages
 MD| CPU time per MD step [s]                      3.646002             7.381449
 MD| Energy drift per atom [K]          -0.152258286294E+04  -0.130382809206E+04
 MD| Potential energy [hartree]         -0.373656844128E+03  -0.373660868749E+03
 MD| Kinetic energy [hartree]            0.308868021946E-01   0.355856998856E-01
 MD| Temperature [K]                              68.443994            78.856574
 MD| ***************************************************************************

 Number of electrons:                                                        256
 Number of occupied orbitals:                                                128
 Number of molecular orbitals:                                               128

 Number of orbital functions:                                                192
 Number of independent orbital functions:                                    192

 Extrapolation method: ASPC


 SCF WAVEFUNCTION OPTIMIZATION

  ----------------------------------- OT ---------------------------------------
  Minimizer      : DIIS                : direct inversion
                                         in the iterative subspace
                                         using   7 DIIS vectors
                                         safer DIIS on
  Preconditioner : FULL_SINGLE_INVERSE : inversion of 
                                         H + eS - 2*(Sc)(c^T*H*c+const)(Sc)^T
  Precond_solver : DEFAULT
  stepsize       :    0.08000000                  energy_gap     :    0.08000000
  eps_taylor     :   0.10000E-15                  max_taylor     :             4
  ----------------------------------- OT ---------------------------------------

  Step     Update method      Time    Convergence         Total energy    Change
  ------------------------------------------------------------------------------
     1 OT DIIS     0.80E-01    1.0     0.00058458      -373.6573963181 -3.74E+02
     2 OT DIIS     0.80E-01    0.2     0.00109939      -373.6572117160  1.85E-04
     3 OT DIIS     0.80E-01    0.2     0.00017518      -373.6575721503 -3.60E-04
     4 OT DIIS     0.80E-01    0.3     0.00012350      -373.6575891489 -1.70E-05
     5 OT DIIS     0.80E-01    0.3     0.00008367      -373.6575978243 -8.68E-06

  *** SCF run converged in     5 steps ***


  Core-core repulsion energy [eV]:                        1653790.88426975114271
  Core Hamiltonian energy [eV]:                            -16511.47047626109634
  Two-electron integral energy [eV]:                     -3294894.30823761457577
  Electronic energy [eV]:                                -1663958.62459506839514

  Total energy [eV]:                                       -10167.74032531709781

  Atomic reference energy [eV]:                             10135.12221567713459
  Heat of formation [kcal/mol]:                              -752.19153713446678

 ENERGY| Total FORCE_EVAL ( QS ) energy [hartree]           -373.657612283052003

 MD| ***************************************************************************
 MD| Step number                                                               8
 MD| Time [fs]                                                          4.000000
 MD| Conserved quantity [hartree]                            -0.373625197356E+03
 MD| ---------------------------------------------------------------------------
 MD|                                          Instantaneous             Averages
 MD| CPU time per MD step [s]                      3.433417             6.887945
 MD| Energy drift per atom [K]          -0.152225769121E+04  -0.133113179195E+04
 MD| Potential energy [hartree]         -0.373657612283E+03  -0.373660461691E+03
 MD| Kinetic energy [hartree]            0.310628259183E-01   0.350203406397E-01
 MD| Temperature [K]                              68.834056            77.603760
 MD| ***************************************************************************

 Number of electrons:                                                        256
 Number of occupied orbitals:                                                128
 Number of molecular orbitals:                                               128

 Number of orbital functions:                                                192
 Number of independent orbital functions:                                    192

 Extrapolation method: ASPC


 SCF WAVEFUNCTION OPTIMIZATION

  ----------------------------------- OT ---------------------------------------
  Minimizer      : DIIS                : direct inversion
                                         in the iterative subspace
                                         using   7 DIIS vectors
                                         safer DIIS on
  Preconditioner : FULL_SINGLE_INVERSE : inversion of 
                                         H + eS - 2*(Sc)(c^T*H*c+const)(Sc)^T
  Precond_solver : DEFAULT
  stepsize       :    0.08000000                  energy_gap     :    0.08000000
  eps_taylor     :   0.10000E-15                  max_taylor     :             4
  ----------------------------------- OT ---------------------------------------

  Step     Update method      Time    Convergence         Total energy    Change
  ------------------------------------------------------------------------------
     1 OT DIIS     0.80E-01    1.0     0.00052448      -373.6585403569 -3.74E+02
     2 OT DIIS     0.80E-01    0.2     0.00105302      -373.6583515608  1.89E-04
     3 OT DIIS     0.80E-01    0.2     0.00015420      -373.6586699025 -3.18E-04
     4 OT DIIS     0.80E-01    0.2     0.00011041      -373.6586803275 -1.04E-05
     5 OT DIIS     0.80E-01    0.3     0.00005973      -373.6586862942 -5.97E-06

  *** SCF run converged in     5 steps ***


  Core-core repulsion energy [eV]:                        1653844.66549602709711
  Core Hamiltonian energy [eV]:                            -16511.28575953764084
  Two-electron integral energy [eV]:                     -3295002.29936115350574
  Electronic energy [eV]:                                -1664012.43544011446647

  Total energy [eV]:                                       -10167.76994408719656

  Atomic reference energy [eV]:                             10135.12221567713459
  Heat of formation [kcal/mol]:                              -752.87456225316942

 ENERGY| Total FORCE_EVAL ( QS ) energy [hartree]           -373.658695129917760

 MD| ***************************************************************************
 MD| Step number                                                               9
 MD| Time [fs]                                                          4.500000
 MD| Conserved quantity [hartree]                            -0.373624712047E+03
 MD| ---------------------------------------------------------------------------
 MD|                                          Instantaneous             Averages
 MD| CPU time per MD step [s]                      3.394286             6.499760
 MD| Energy drift per atom [K]          -0.152066135563E+04  -0.135219063236E+04
 MD| Potential energy [hartree]         -0.373658695130E+03  -0.373660265406E+03
 MD| Kinetic energy [hartree]            0.325186315564E-01   0.347423729638E-01
 MD| Temperature [K]                              72.060066            76.987794
 MD| ***************************************************************************

 Number of electrons:                                                        256
 Number of occupied orbitals:                                                128
 Number of molecular orbitals:                                               128

 Number of orbital functions:                                                192
 Number of independent orbital functions:                                    192

 Extrapolation method: ASPC


 SCF WAVEFUNCTION OPTIMIZATION

  ----------------------------------- OT ---------------------------------------
  Minimizer      : DIIS                : direct inversion
                                         in the iterative subspace
                                         using   7 DIIS vectors
                                         safer DIIS on
  Preconditioner : FULL_SINGLE_INVERSE : inversion of 
                                         H + eS - 2*(Sc)(c^T*H*c+const)(Sc)^T
  Precond_solver : DEFAULT
  stepsize       :    0.08000000                  energy_gap     :    0.08000000
  eps_taylor     :   0.10000E-15                  max_taylor     :             4
  ----------------------------------- OT ---------------------------------------

  Step     Update method      Time    Convergence         Total energy    Change
  ------------------------------------------------------------------------------
     1 OT DIIS     0.80E-01    1.0     0.00050815      -373.6603360060 -3.74E+02
     2 OT DIIS     0.80E-01    0.2     0.00102824      -373.6601501249  1.86E-04
     3 OT DIIS     0.80E-01    0.2     0.00015570      -373.6604537056 -3.04E-04
     4 OT DIIS     0.80E-01    0.3     0.00011187      -373.6604638808 -1.02E-05
     5 OT DIIS     0.80E-01    0.3     0.00006156      -373.6604704771 -6.60E-06

  *** SCF run converged in     5 steps ***


  Core-core repulsion energy [eV]:                        1653781.96189655805938
  Core Hamiltonian energy [eV]:                            -16511.47027357440675
  Two-electron integral energy [eV]:                     -3294876.62023431574926
  Electronic energy [eV]:                                -1663949.78039073222317

  Total energy [eV]:                                       -10167.81849417422927

  Atomic reference energy [eV]:                             10135.12221567713459
  Heat of formation [kcal/mol]:                              -753.99415394615482

 ENERGY| Total FORCE_EVAL ( QS ) energy [hartree]           -373.660482823273924

 MD| ***************************************************************************
 MD| Step number                                                              10
 MD| Time [fs]                                                          5.000000
 MD| Conserved quantity [hartree]                            -0.373624684796E+03
 MD| ---------------------------------------------------------------------------
 MD|                                          Instantaneous             Averages
 MD| CPU time per MD step [s]                      3.409458             6.190730
 MD| Energy drift per atom [K]          -0.152057171782E+04  -0.136902874091E+04
 MD| Potential energy [hartree]         -0.373660482823E+03  -0.373660287148E+03
 MD| Kinetic energy [hartree]            0.348159250828E-01   0.347497281757E-01
 MD| Temperature [K]                              77.150782            77.004092
 MD| ***************************************************************************

 Number of electrons:                                                        256
 Number of occupied orbitals:                                                128
 Number of molecular orbitals:                                               128

 Number of orbital functions:                                                192
 Number of independent orbital functions:                                    192

 Extrapolation method: ASPC


 SCF WAVEFUNCTION OPTIMIZATION

  ----------------------------------- OT ---------------------------------------
  Minimizer      : DIIS                : direct inversion
                                         in the iterative subspace
                                         using   7 DIIS vectors
                                         safer DIIS on
  Preconditioner : FULL_SINGLE_INVERSE : inversion of 
                                         H + eS - 2*(Sc)(c^T*H*c+const)(Sc)^T
  Precond_solver : DEFAULT
  stepsize       :    0.08000000                  energy_gap     :    0.08000000
  eps_taylor     :   0.10000E-15                  max_taylor     :             4
  ----------------------------------- OT ---------------------------------------

  Step     Update method      Time    Convergence         Total energy    Change
  ------------------------------------------------------------------------------
     1 OT DIIS     0.80E-01    1.0     0.00060206      -373.6619335461 -3.74E+02
     2 OT DIIS     0.80E-01    0.2     0.00119646      -373.6616589079  2.75E-04
     3 OT DIIS     0.80E-01    0.2     0.00017320      -373.6620816405 -4.23E-04
     4 OT DIIS     0.80E-01    0.2     0.00011758      -373.6620898013 -8.16E-06
     5 OT DIIS     0.80E-01    0.2     0.00004120      -373.6620953309 -5.53E-06

  *** SCF run converged in     5 steps ***


  Core-core repulsion energy [eV]:                        1653722.01146456203423
  Core Hamiltonian energy [eV]:                            -16511.83365980620511
  Two-electron integral energy [eV]:                     -3294756.08102689776570
  Electronic energy [eV]:                                -1663889.87417325517163

  Total energy [eV]:                                       -10167.86270869314467

  Atomic reference energy [eV]:                             10135.12221567713459
  Heat of formation [kcal/mol]:                              -755.01376505524001

 ENERGY| Total FORCE_EVAL ( QS ) energy [hartree]           -373.662099459957972

 MD| ***************************************************************************
 MD| Step number                                                              11
 MD| Time [fs]                                                          5.500000
 MD| Conserved quantity [hartree]                            -0.373624728983E+03
 MD| ---------------------------------------------------------------------------
 MD|                                          Instantaneous             Averages
 MD| CPU time per MD step [s]                      3.409152             5.937859
 MD| Energy drift per atom [K]          -0.152071706196E+04  -0.138281858827E+04
 MD| Potential energy [hartree]         -0.373662099460E+03  -0.373660451903E+03
 MD| Kinetic energy [hartree]            0.360945602753E-01   0.348719856393E-01
 MD| Temperature [K]                              79.984190            77.275010
 MD| ***************************************************************************

 Number of electrons:                                                        256
 Number of occupied orbitals:                                                128
 Number of molecular orbitals:                                               128

 Number of orbital functions:                                                192
 Number of independent orbital functions:                                    192

 Extrapolation method: ASPC


 SCF WAVEFUNCTION OPTIMIZATION

  ----------------------------------- OT ---------------------------------------
  Minimizer      : DIIS                : direct inversion
                                         in the iterative subspace
                                         using   7 DIIS vectors
                                         safer DIIS on
  Preconditioner : FULL_SINGLE_INVERSE : inversion of 
                                         H + eS - 2*(Sc)(c^T*H*c+const)(Sc)^T
  Precond_solver : DEFAULT
  stepsize       :    0.08000000                  energy_gap     :    0.08000000
  eps_taylor     :   0.10000E-15                  max_taylor     :             4
  ----------------------------------- OT ---------------------------------------

  Step     Update method      Time    Convergence         Total energy    Change
  ------------------------------------------------------------------------------
     1 OT DIIS     0.80E-01    1.0     0.00059212      -373.6624785497 -3.74E+02
     2 OT DIIS     0.80E-01    0.2     0.00118318      -373.6622152732  2.63E-04
     3 OT DIIS     0.80E-01    0.2     0.00017399      -373.6626243473 -4.09E-04
     4 OT DIIS     0.80E-01    0.2     0.00012067      -373.6626333579 -9.01E-06
     5 OT DIIS     0.80E-01    0.2     0.00004911      -373.6626393584 -6.00E-06

  *** SCF run converged in     5 steps ***


  Core-core repulsion energy [eV]:                        1653770.22125775646418
  Core Hamiltonian energy [eV]:                            -16512.07485973412258
  Two-electron integral energy [eV]:                     -3294852.04782091267407
  Electronic energy [eV]:                                -1663938.09877019049600

  Total energy [eV]:                                       -10167.87751243402636

  Atomic reference energy [eV]:                             10135.12221567713459
  Heat of formation [kcal/mol]:                              -755.35514745697787

 ENERGY| Total FORCE_EVAL ( QS ) energy [hartree]           -373.662645632270142

 MD| ***************************************************************************
 MD| Step number                                                              12
 MD| Time [fs]                                                          6.000000
 MD| Conserved quantity [hartree]                            -0.373624337255E+03
 MD| ---------------------------------------------------------------------------
 MD|                                          Instantaneous             Averages
 MD| CPU time per MD step [s]                      3.387193             5.725304
 MD| Energy drift per atom [K]          -0.151942854511E+04  -0.139420275134E+04
 MD| Potential energy [hartree]         -0.373662645632E+03  -0.373660634714E+03
 MD| Kinetic energy [hartree]            0.371385171720E-01   0.350608632670E-01
 MD| Temperature [K]                              82.297559            77.693556
 MD| ***************************************************************************

 Number of electrons:                                                        256
 Number of occupied orbitals:                                                128
 Number of molecular orbitals:                                               128

 Number of orbital functions:                                                192
 Number of independent orbital functions:                                    192

 Extrapolation method: ASPC


 SCF WAVEFUNCTION OPTIMIZATION

  ----------------------------------- OT ---------------------------------------
  Minimizer      : DIIS                : direct inversion
                                         in the iterative subspace
                                         using   7 DIIS vectors
                                         safer DIIS on
  Preconditioner : FULL_SINGLE_INVERSE : inversion of 
                                         H + eS - 2*(Sc)(c^T*H*c+const)(Sc)^T
  Precond_solver : DEFAULT
  stepsize       :    0.08000000                  energy_gap     :    0.08000000
  eps_taylor     :   0.10000E-15                  max_taylor     :             4
  ----------------------------------- OT ---------------------------------------

  Step     Update method      Time    Convergence         Total energy    Change
  ------------------------------------------------------------------------------
     1 OT DIIS     0.80E-01    1.0     0.00055295      -373.6626929745 -3.74E+02
     2 OT DIIS     0.80E-01    0.2     0.00101940      -373.6625188849  1.74E-04
     3 OT DIIS     0.80E-01    0.2     0.00016093      -373.6628327377 -3.14E-04
     4 OT DIIS     0.80E-01    0.2     0.00011594      -373.6628411999 -8.46E-06
     5 OT DIIS     0.80E-01    0.3     0.00005011      -373.6628466874 -5.49E-06

  *** SCF run converged in     5 steps ***


  Core-core repulsion energy [eV]:                        1653771.97050238726661
  Core Hamiltonian energy [eV]:                            -16512.78019885510002
  Two-electron integral energy [eV]:                     -3294854.14691535150632
  Electronic energy [eV]:                                -1663939.85365653084591

  Total energy [eV]:                                       -10167.88315414346835

  Atomic reference energy [eV]:                             10135.12221567713459
  Heat of formation [kcal/mol]:                              -755.48524837773266

 ENERGY| Total FORCE_EVAL ( QS ) energy [hartree]           -373.662853734298551

 MD| ***************************************************************************
 MD| Step number                                                              13
 MD| Time [fs]                                                          6.500000
 MD| Conserved quantity [hartree]                            -0.373624468420E+03
 MD| ---------------------------------------------------------------------------
 MD|                                          Instantaneous             Averages
 MD| CPU time per MD step [s]                      3.395496             5.546088
 MD| Energy drift per atom [K]          -0.151985998691E+04  -0.140386869254E+04
 MD| Potential energy [hartree]         -0.373662853734E+03  -0.373660805408E+03
 MD| Kinetic energy [hartree]            0.373064951545E-01   0.352336041814E-01
 MD| Temperature [K]                              82.669792            78.076344
 MD| ***************************************************************************

 Number of electrons:                                                        256
 Number of occupied orbitals:                                                128
 Number of molecular orbitals:                                               128

 Number of orbital functions:                                                192
 Number of independent orbital functions:                                    192

 Extrapolation method: ASPC


 SCF WAVEFUNCTION OPTIMIZATION

  ----------------------------------- OT ---------------------------------------
  Minimizer      : DIIS                : direct inversion
                                         in the iterative subspace
                                         using   7 DIIS vectors
                                         safer DIIS on
  Preconditioner : FULL_SINGLE_INVERSE : inversion of 
                                         H + eS - 2*(Sc)(c^T*H*c+const)(Sc)^T
  Precond_solver : DEFAULT
  stepsize       :    0.08000000                  energy_gap     :    0.08000000
  eps_taylor     :   0.10000E-15                  max_taylor     :             4
  ----------------------------------- OT ---------------------------------------

  Step     Update method      Time    Convergence         Total energy    Change
  ------------------------------------------------------------------------------
     1 OT DIIS     0.80E-01    1.0     0.00049131      -373.6616561039 -3.74E+02
     2 OT DIIS     0.80E-01    0.2     0.00088292      -373.6615336341  1.22E-04
     3 OT DIIS     0.80E-01    0.2     0.00016146      -373.6617648351 -2.31E-04
     4 OT DIIS     0.80E-01    0.2     0.00009502      -373.6617723322 -7.50E-06

  *** SCF run converged in     4 steps ***


  Core-core repulsion energy [eV]:                        1653858.95406104042195
  Core Hamiltonian energy [eV]:                            -16513.37011130584142
  Two-electron integral energy [eV]:                     -3295026.87573837628588
  Electronic energy [eV]:                                -1664026.80798049410805

  Total energy [eV]:                                       -10167.85391945357333

  Atomic reference energy [eV]:                             10135.12221567713459
  Heat of formation [kcal/mol]:                              -754.81108035963848

 ENERGY| Total FORCE_EVAL ( QS ) energy [hartree]           -373.661775508640858

 MD| ***************************************************************************
 MD| Step number                                                              14
 MD| Time [fs]                                                          7.000000
 MD| Conserved quantity [hartree]                            -0.373624198799E+03
 MD| ---------------------------------------------------------------------------
 MD|                                          Instantaneous             Averages
 MD| CPU time per MD step [s]                      3.150154             5.374950
 MD| Energy drift per atom [K]          -0.151897311778E+04  -0.141209043720E+04
 MD| Potential energy [hartree]         -0.373661775509E+03  -0.373660874701E+03
 MD| Kinetic energy [hartree]            0.366647950757E-01   0.353358321025E-01
 MD| Temperature [K]                              81.247809            78.302877
 MD| ***************************************************************************

 Number of electrons:                                                        256
 Number of occupied orbitals:                                                128
 Number of molecular orbitals:                                               128

 Number of orbital functions:                                                192
 Number of independent orbital functions:                                    192

 Extrapolation method: ASPC


 SCF WAVEFUNCTION OPTIMIZATION

  ----------------------------------- OT ---------------------------------------
  Minimizer      : DIIS                : direct inversion
                                         in the iterative subspace
                                         using   7 DIIS vectors
                                         safer DIIS on
  Preconditioner : FULL_SINGLE_INVERSE : inversion of 
                                         H + eS - 2*(Sc)(c^T*H*c+const)(Sc)^T
  Precond_solver : DEFAULT
  stepsize       :    0.08000000                  energy_gap     :    0.08000000
  eps_taylor     :   0.10000E-15                  max_taylor     :             4
  ----------------------------------- OT ---------------------------------------

  Step     Update method      Time    Convergence         Total energy    Change
  ------------------------------------------------------------------------------
     1 OT DIIS     0.80E-01    1.0     0.00049450      -373.6601297958 -3.74E+02
     2 OT DIIS     0.80E-01    0.3     0.00086443      -373.6600272583  1.03E-04
     3 OT DIIS     0.80E-01    0.3     0.00017551      -373.6602492078 -2.22E-04
     4 OT DIIS     0.80E-01    0.2     0.00009923      -373.6602609800 -1.18E-05

  *** SCF run converged in     4 steps ***


  Core-core repulsion energy [eV]:                        1653878.27448691520840
  Core Hamiltonian energy [eV]:                            -16513.85846419501104
  Two-electron integral energy [eV]:                     -3295064.45763237820938
  Electronic energy [eV]:                                -1664046.08728038403206

  Total energy [eV]:                                       -10167.81279346885458

  Atomic reference energy [eV]:                             10135.12221567713459
  Heat of formation [kcal/mol]:                              -753.86269254675312

 ENERGY| Total FORCE_EVAL ( QS ) energy [hartree]           -373.660265580067062

 MD| ***************************************************************************
 MD| Step number                                                              15
 MD| Time [fs]                                                          7.500000
 MD| Conserved quantity [hartree]                            -0.373624167918E+03
 MD| ---------------------------------------------------------------------------
 MD|                                          Instantaneous             Averages
 MD| CPU time per MD step [s]                      3.210798             5.230673
 MD| Energy drift per atom [K]          -0.151887154083E+04  -0.141920917744E+04
 MD| Potential energy [hartree]         -0.373660265580E+03  -0.373660834093E+03
 MD| Kinetic energy [hartree]            0.354155353350E-01   0.353411456513E-01
 MD| Temperature [K]                              78.479496            78.314651
 MD| ***************************************************************************

 Number of electrons:                                                        256
 Number of occupied orbitals:                                                128
 Number of molecular orbitals:                                               128

 Number of orbital functions:                                                192
 Number of independent orbital functions:                                    192

 Extrapolation method: ASPC


 SCF WAVEFUNCTION OPTIMIZATION

  ----------------------------------- OT ---------------------------------------
  Minimizer      : DIIS                : direct inversion
                                         in the iterative subspace
                                         using   7 DIIS vectors
                                         safer DIIS on
  Preconditioner : FULL_SINGLE_INVERSE : inversion of 
                                         H + eS - 2*(Sc)(c^T*H*c+const)(Sc)^T
  Precond_solver : DEFAULT
  stepsize       :    0.08000000                  energy_gap     :    0.08000000
  eps_taylor     :   0.10000E-15                  max_taylor     :             4
  ----------------------------------- OT ---------------------------------------

  Step     Update method      Time    Convergence         Total energy    Change
  ------------------------------------------------------------------------------
     1 OT DIIS     0.80E-01    1.0     0.00049659      -373.6580073725 -3.74E+02
     2 OT DIIS     0.80E-01    0.2     0.00084623      -373.6579188793  8.85E-05
     3 OT DIIS     0.80E-01    0.3     0.00016349      -373.6581348701 -2.16E-04
     4 OT DIIS     0.80E-01    0.2     0.00009092      -373.6581467339 -1.19E-05

  *** SCF run converged in     4 steps ***


  Core-core repulsion energy [eV]:                        1653966.98744055605493
  Core Hamiltonian energy [eV]:                            -16514.39103496228199
  Two-electron integral energy [eV]:                     -3295240.70333500020206
  Electronic energy [eV]:                                -1664134.74270246247761

  Total energy [eV]:                                       -10167.75526190633718

  Atomic reference energy [eV]:                             10135.12221567713459
  Heat of formation [kcal/mol]:                              -752.53598309235281

 ENERGY| Total FORCE_EVAL ( QS ) energy [hartree]           -373.658151158429973

 MD| ***************************************************************************
 MD| Step number                                                              16
 MD| Time [fs]                                                          8.000000
 MD| Conserved quantity [hartree]                            -0.373623817254E+03
 MD| ---------------------------------------------------------------------------
 MD|                                          Instantaneous             Averages
 MD| CPU time per MD step [s]                      3.288976             5.109317
 MD| Energy drift per atom [K]          -0.151771809670E+04  -0.142536598490E+04
 MD| Potential energy [hartree]         -0.373658151158E+03  -0.373660666410E+03
 MD| Kinetic energy [hartree]            0.339460551810E-01   0.352539524969E-01
 MD| Temperature [K]                              75.223183            78.121435
 MD| ***************************************************************************

 Number of electrons:                                                        256
 Number of occupied orbitals:                                                128
 Number of molecular orbitals:                                               128

 Number of orbital functions:                                                192
 Number of independent orbital functions:                                    192

 Extrapolation method: ASPC


 SCF WAVEFUNCTION OPTIMIZATION

  ----------------------------------- OT ---------------------------------------
  Minimizer      : DIIS                : direct inversion
                                         in the iterative subspace
                                         using   7 DIIS vectors
                                         safer DIIS on
  Preconditioner : FULL_SINGLE_INVERSE : inversion of 
                                         H + eS - 2*(Sc)(c^T*H*c+const)(Sc)^T
  Precond_solver : DEFAULT
  stepsize       :    0.08000000                  energy_gap     :    0.08000000
  eps_taylor     :   0.10000E-15                  max_taylor     :             4
  ----------------------------------- OT ---------------------------------------

  Step     Update method      Time    Convergence         Total energy    Change
  ------------------------------------------------------------------------------
     1 OT DIIS     0.80E-01    1.0     0.00053663      -373.6560940627 -3.74E+02
     2 OT DIIS     0.80E-01    0.2     0.00097836      -373.6559466785  1.47E-04
     3 OT DIIS     0.80E-01    0.2     0.00015674      -373.6562312856 -2.85E-04
     4 OT DIIS     0.80E-01    0.2     0.00009323      -373.6562407488 -9.46E-06

  *** SCF run converged in     4 steps ***


  Core-core repulsion energy [eV]:                        1654000.94873127015308
  Core Hamiltonian energy [eV]:                            -16514.59486692825885
  Two-electron integral energy [eV]:                     -3295308.11452351091430
  Electronic energy [eV]:                                -1664168.65212868386880

  Total energy [eV]:                                       -10167.70339741365569

  Atomic reference energy [eV]:                             10135.12221567713459
  Heat of formation [kcal/mol]:                              -751.33995938335715

 ENERGY| Total FORCE_EVAL ( QS ) energy [hartree]           -373.656244488825905

 MD| ***************************************************************************
 MD| Step number                                                              17
 MD| Time [fs]                                                          8.500000
 MD| Conserved quantity [hartree]                            -0.373623529229E+03
 MD| ---------------------------------------------------------------------------
 MD|                                          Instantaneous             Averages
 MD| CPU time per MD step [s]                      3.190246             4.996430
 MD| Energy drift per atom [K]          -0.151677069081E+04  -0.143074273230E+04
 MD| Potential energy [hartree]         -0.373656244489E+03  -0.373660406297E+03
 MD| Kinetic energy [hartree]            0.330532571583E-01   0.351244998299E-01
 MD| Temperature [K]                              73.244776            77.834572
 MD| ***************************************************************************

 Number of electrons:                                                        256
 Number of occupied orbitals:                                                128
 Number of molecular orbitals:                                               128

[...]
  Precond_solver : DEFAULT
  stepsize       :    0.08000000                  energy_gap     :    0.08000000
  eps_taylor     :   0.10000E-15                  max_taylor     :             4
  ----------------------------------- OT ---------------------------------------

  Step     Update method      Time    Convergence         Total energy    Change
  ------------------------------------------------------------------------------
     1 OT DIIS     0.80E-01    1.0     0.00054891      -373.6262079446 -3.74E+02
     2 OT DIIS     0.80E-01    0.2     0.00109386      -373.6259880123  2.20E-04
     3 OT DIIS     0.80E-01    0.2     0.00013874      -373.6263351887 -3.47E-04
     4 OT DIIS     0.80E-01    0.3     0.00007453      -373.6263426768 -7.49E-06

  *** SCF run converged in     4 steps ***


  Core-core repulsion energy [eV]:                        1659555.17223228351213
  Core Hamiltonian energy [eV]:                            -16507.52093297112515
  Two-electron integral energy [eV]:                     -3306429.08225762238726
  Electronic energy [eV]:                                -1669722.06206178222783

  Total energy [eV]:                                       -10166.88982949880665

  Atomic reference energy [eV]:                             10135.12221567713459
  Heat of formation [kcal/mol]:                              -732.57863608200853

 ENERGY| Total FORCE_EVAL ( QS ) energy [hartree]           -373.626344805270492

 MD| ***************************************************************************
 MD| Step number                                                             998
 MD| Time [fs]                                                        499.000000
 MD| Conserved quantity [hartree]                            -0.373616678690E+03
 MD| ---------------------------------------------------------------------------
 MD|                                          Instantaneous             Averages
 MD| CPU time per MD step [s]                      3.152810             3.264740
 MD| Energy drift per atom [K]          -0.149423708097E+04  -0.150312365155E+04
 MD| Potential energy [hartree]         -0.373626344805E+03  -0.373632913708E+03
 MD| Kinetic energy [hartree]            0.396587135313E-01   0.359133046444E-01
 MD| Temperature [K]                              87.882220            79.582534
 MD| ***************************************************************************

 Number of electrons:                                                        256
 Number of occupied orbitals:                                                128
 Number of molecular orbitals:                                               128

 Number of orbital functions:                                                192
 Number of independent orbital functions:                                    192

 Extrapolation method: ASPC


 SCF WAVEFUNCTION OPTIMIZATION

  ----------------------------------- OT ---------------------------------------
  Minimizer      : DIIS                : direct inversion
                                         in the iterative subspace
                                         using   7 DIIS vectors
                                         safer DIIS on
  Preconditioner : FULL_SINGLE_INVERSE : inversion of 
                                         H + eS - 2*(Sc)(c^T*H*c+const)(Sc)^T
  Precond_solver : DEFAULT
  stepsize       :    0.08000000                  energy_gap     :    0.08000000
  eps_taylor     :   0.10000E-15                  max_taylor     :             4
  ----------------------------------- OT ---------------------------------------

  Step     Update method      Time    Convergence         Total energy    Change
  ------------------------------------------------------------------------------
     1 OT DIIS     0.80E-01    1.0     0.00060482      -373.6247250423 -3.74E+02
     2 OT DIIS     0.80E-01    0.2     0.00115260      -373.6245044682  2.21E-04
     3 OT DIIS     0.80E-01    0.2     0.00017465      -373.6248895287 -3.85E-04
     4 OT DIIS     0.80E-01    0.2     0.00008208      -373.6249017365 -1.22E-05

  *** SCF run converged in     4 steps ***


  Core-core repulsion energy [eV]:                        1659553.28217094554566
  Core Hamiltonian energy [eV]:                            -16508.29352820239365
  Two-electron integral energy [eV]:                     -3306423.67852452676743
  Electronic energy [eV]:                                -1669720.13279046583921

  Total energy [eV]:                                       -10166.85061952034630

  Atomic reference energy [eV]:                             10135.12221567713459
  Heat of formation [kcal/mol]:                              -731.67443242660602

 ENERGY| Total FORCE_EVAL ( QS ) energy [hartree]           -373.624904616313870

 MD| ***************************************************************************
 MD| Step number                                                             999
 MD| Time [fs]                                                        499.500000
 MD| Conserved quantity [hartree]                            -0.373616425357E+03
 MD| ---------------------------------------------------------------------------
 MD|                                          Instantaneous             Averages
 MD| CPU time per MD step [s]                      3.176966             3.264652
 MD| Energy drift per atom [K]          -0.149340378823E+04  -0.150311392196E+04
 MD| Potential energy [hartree]         -0.373624904616E+03  -0.373632905691E+03
 MD| Kinetic energy [hartree]            0.385482448526E-01   0.359159422222E-01
 MD| Temperature [K]                              85.421463            79.588379
 MD| ***************************************************************************

 Number of electrons:                                                        256
 Number of occupied orbitals:                                                128
 Number of molecular orbitals:                                               128

 Number of orbital functions:                                                192
 Number of independent orbital functions:                                    192

 Extrapolation method: ASPC


 SCF WAVEFUNCTION OPTIMIZATION

  ----------------------------------- OT ---------------------------------------
  Minimizer      : DIIS                : direct inversion
                                         in the iterative subspace
                                         using   7 DIIS vectors
                                         safer DIIS on
  Preconditioner : FULL_SINGLE_INVERSE : inversion of 
                                         H + eS - 2*(Sc)(c^T*H*c+const)(Sc)^T
  Precond_solver : DEFAULT
  stepsize       :    0.08000000                  energy_gap     :    0.08000000
  eps_taylor     :   0.10000E-15                  max_taylor     :             4
  ----------------------------------- OT ---------------------------------------

  Step     Update method      Time    Convergence         Total energy    Change
  ------------------------------------------------------------------------------
     1 OT DIIS     0.80E-01    1.0     0.00053810      -373.6233433046 -3.74E+02
     2 OT DIIS     0.80E-01    0.2     0.00109167      -373.6231209559  2.22E-04
     3 OT DIIS     0.80E-01    0.3     0.00013465      -373.6234647145 -3.44E-04
     4 OT DIIS     0.80E-01    0.2     0.00007367      -373.6234722714 -7.56E-06

  *** SCF run converged in     4 steps ***


  Core-core repulsion energy [eV]:                        1659606.30450267554261
  Core Hamiltonian energy [eV]:                            -16509.13649648721912
  Two-electron integral energy [eV]:                     -3306527.95945597160608
  Electronic energy [eV]:                                -1669773.11622447310947

  Total energy [eV]:                                       -10166.81172179746682

  Atomic reference energy [eV]:                             10135.12221567713459
  Heat of formation [kcal/mol]:                              -730.77742955654094

 ENERGY| Total FORCE_EVAL ( QS ) energy [hartree]           -373.623474525506026

 MD| ***************************************************************************
 MD| Step number                                                            1000
 MD| Time [fs]                                                        500.000000
 MD| Conserved quantity [hartree]                            -0.373615919692E+03
 MD| ---------------------------------------------------------------------------
 MD|                                          Instantaneous             Averages
 MD| CPU time per MD step [s]                      3.155547             3.264543
 MD| Energy drift per atom [K]          -0.149174049138E+04  -0.150310254852E+04
 MD| Potential energy [hartree]         -0.373623474526E+03  -0.373632896260E+03
 MD| Kinetic energy [hartree]            0.375910994620E-01   0.359176173794E-01
 MD| Temperature [K]                              83.300465            79.592091
 MD| ***************************************************************************

 -------------------------------------------------------------------------------
 -                                                                             -
 -                                DBCSR STATISTICS                             -
 -                                                                             -
 -------------------------------------------------------------------------------
 COUNTER                                    TOTAL       BLAS       SMM       ACC
 flops     1 x    32 x    32           2624061440     100.0%      0.0%      0.0%     
 flops     1 x     1 x   128           3291949056     100.0%      0.0%      0.0%     
 flops    32 x    32 x   192           3936092160     100.0%      0.0%      0.0%     
 flops     4 x    32 x    32           5248122880     100.0%      0.0%      0.0%     
 flops     1 x     4 x   128           6267797504     100.0%      0.0%      0.0%     
 flops     4 x     1 x   128           6300155904     100.0%      0.0%      0.0%     
 flops     1 x    32 x     1           6463481344     100.0%      0.0%      0.0%     
 flops     4 x     4 x   128          11775758336     100.0%      0.0%      0.0%     
 flops    24 x   128 x   192          12442927104     100.0%      0.0%      0.0%     
 flops     4 x    32 x     1          12457755648     100.0%      0.0%      0.0%     
 flops     1 x    32 x     4          12457755648     100.0%      0.0%      0.0%     
 flops    28 x   128 x   192          14516748288     100.0%      0.0%      0.0%     
 flops    25 x   128 x   192          19442073600     100.0%      0.0%      0.0%     
 flops     4 x    32 x     4          22052569088     100.0%      0.0%      0.0%     
 flops    24 x   128 x   128          30455365632     100.0%      0.0%      0.0%     
 flops    28 x   128 x   128          35531259904     100.0%      0.0%      0.0%     
 flops    25 x   128 x   128          47586508800     100.0%      0.0%      0.0%     
 flops    32 x   128 x   128          92132081664     100.0%      0.0%      0.0%     
 flops    32 x   128 x   192         101235818496     100.0%      0.0%      0.0%     
 flops inhomo. stacks                 25024004096     100.0%      0.0%      0.0%
 flops total                       471.242287E+09     100.0%      0.0%      0.0%
 flops max/rank                    471.242287E+09     100.0%      0.0%      0.0%
 matmuls inhomo. stacks                     24637     100.0%      0.0%      0.0%
 matmuls total                          250142587     100.0%      0.0%      0.0%
 number of processed stacks                946780     100.0%      0.0%      0.0%
 average stack size                                   264.2       0.0       0.0
 marketing flops                   508.598157E+09
 -------------------------------------------------------------------------------
 # multiplications                          79249
 max memory usage/rank               0.000000E+00
 # max total images/rank                        1
 # max 3D layers                                1
 # MPI messages exchanged                       0
 -------------------------------------------------------------------------------

 -------------------------------------------------------------------------------
 -                                                                             -
 -                                DBM STATISTICS                               -
 -                                                                             -
 -------------------------------------------------------------------------------
    M  x    N  x    K                                          COUNT     PERCENT
 -------------------------------------------------------------------------------

 -------------------------------------------------------------------------------
 -                                                                             -
 -                                GRID STATISTICS                              -
 -                                                                             -
 -------------------------------------------------------------------------------
 LP    KERNEL             BACKEND                              COUNT     PERCENT
 -------------------------------------------------------------------------------

 MEMORY| Estimated peak process memory [MiB]                                   0

 -------------------------------------------------------------------------------
 -                                                                             -
 -                           R E F E R E N C E S                               -
 -                                                                             -
 -------------------------------------------------------------------------------
 
 CP2K version 2025.1, the CP2K developers group (2025).
 CP2K is freely available from https://www.cp2k.org/ .
 
 T. D. Kuehne, M. Iannuzzi, M. Del Ben, V. V. Rybkin, P. Seewald, F. Stein, T. 
 Laino, R. Z. Khaliullin, O. Schuett, F. Schiffmann, D. Golze, J. Wilhelm, S. 
 Chulkov, M. H. Bani-Hashemian, V. Weber, U. Borstnik, M. Taillefumier, A. S. 
 Jakobovits, A. Lazzaro, H. Pabst, T. Mueller, R. Schade, M. Guidon, S. 
 Andermatt, N. Holmberg, G. K. Schenter, A. Hehn, A. Bussy, F. Belleflamme, G. 
 Tabacchi, A. Gloess, M. Lass, I. Bethune, C. J. Mundy, C. Plessl, M. Watkins, 
 J. VandeVondele, M. Krack, J. Hutter.
 J. Chem. Phys. 152, 194103 (2020).
 CP2K: An electronic structure and molecular dynamics software package - 
 Quickstep: Efficient and accurate electronic structure calculations.
 https://doi.org/10.1063/5.0007045

 O. Schuett, P. Messmer, J. Hutter, J. VandeVondele.
 Electronic Structure Calculations on Graphics Processing Units, 173-190 (2016).
 GPU-Accelerated Sparse Matrix-Matrix Multiplication for Linear Scaling Density 
 Functional Theory.
 https://doi.org/10.1002/9781118670712.ch8

 J. Hutter, M. Iannuzzi, F. Schiffmann, J. VandeVondele.
 WIREs Comput Mol Sci. 4, 15-25 (2014).
 CP2K: atomistic simulations of condensed matter systems.
 https://doi.org/10.1002/wcms.1159

 U. Borstnik, J. VandeVondele, V. Weber, J. Hutter.
 Parallel Comput. 40, 47-58 (2014).
 Sparse matrix multiplication: The distributed block-compressed sparse row 
 library.
 https://doi.org/10.1016/j.parco.2014.03.012

 J. J. P. Stewart.
 J. Mol. Model. 13, 1173-1213 (2007).
 Optimization of parameters for semiempirical methods V: Modification of NDDO 
 approximations and application to 70 elements.
 https://doi.org/10.1007/s00894-007-0233-4

 G. Bussi, D. Donadio, M. Parrinello.
 J. Chem. Phys. 126, 014101 (2007).
 Canonical sampling through velocity rescaling.
 https://doi.org/10.1063/1.2408420

 T. D. Khne, M. Krack, F. R. Mohamed, M. Parrinello.
 Phys. Rev. Lett. 98, 066401 (2007).
 Efficient and accurate Car-Parrinello-like approach to Born-Oppenheimer 
 molecular dynamics.
 https://doi.org/10.1103/PhysRevLett.98.066401

 M. Frigo, S. G. Johnson.
 Proc. IEEE 93, 216-231 (2005).
 The design and implementation of FFTW3.
 https://doi.org/10.1109/JPROC.2004.840301

 J. Kolafa.
 J. Comput. Chem. 25, 335-342 (2004).
 Time-reversible always stable predictor-corrector method for molecular dynamics 
 of polarizable molecules.
 https://doi.org/10.1002/jcc.10385

 J. VandeVondele, J. Hutter.
 J. Chem. Phys. 118, 4365-4369 (2003).
 An efficient orbital transformation method for electronic structure 
 calculations.
 https://doi.org/10.1063/1.1543154


 -------------------------------------------------------------------------------
 -                                                                             -
 -                                T I M I N G                                  -
 -                                                                             -
 -------------------------------------------------------------------------------
 SUBROUTINE                       CALLS  ASD         SELF TIME        TOTAL TIME
                                MAXIMUM       AVERAGE  MAXIMUM  AVERAGE  MAXIMUM
 CP2K                                 1  1.0    0.021    0.021 3264.578 3264.578
 qs_mol_dyn_low                       1  2.0    0.021    0.021 3264.550 3264.550
 qs_forces                         1001  4.0    0.070    0.070 3262.344 3262.344
 velocity_verlet                   1000  3.0    0.066    0.066 3247.598 3247.598
 rebuild_ks_matrix                 5274  8.4    0.008    0.008 2748.135 2748.135
 build_se_fock_matrix              5274  9.4    8.644    8.644 2748.128 2748.128
 build_fock_matrix_coulomb         5274 10.4 2658.254 2658.254 2677.895 2677.895
 qs_energies                       1001  5.0    0.029    0.029 1891.728 1891.728
 scf_env_do_scf                    1001  6.0    0.016    0.016 1807.077 1807.077
 qs_ks_update_qs_env               5274  8.0    0.014    0.014 1454.350 1454.350
 qs_ks_update_qs_env_forces        1001  5.0    0.003    0.003 1294.444 1294.444
 init_scf_loop                     1001  7.0    0.014    0.014  943.369  943.369
 scf_env_do_scf_inner_loop         4273  7.0    0.260    0.260  862.590  862.590
 qs_scf_new_mos                    4273  8.0    0.012    0.012  302.352  302.352
 qs_scf_loop_do_ot                 4273  9.0    0.015    0.015  302.340  302.340
 ot_scf_mini                       4273 10.0    0.042    0.042  286.051  286.051
 dbcsr_multiply_generic           79249 12.9    5.438    5.438  265.868  265.868
 ot_mini                           4273 11.0    0.015    0.015  205.752  205.752
 qs_ot_get_derivative              4273 12.0    0.022    0.022  168.128  168.128
 dbcsr_finalize                  239530 13.4   34.614   34.614  124.972  124.972
 make_m2s                        158498 13.9    0.891    0.891  117.127  117.127
 qs_ot_get_derivative_taylor       4179 13.0    0.062    0.062  114.405  114.405
 se_core_core_interaction          2002  6.0   92.754   92.754   92.755   92.755
 dbcsr_merge_all                 207773 14.8   77.687   77.687   85.778   85.778
 dbcsr_add_d                      72764 13.1    0.059    0.059   81.198   81.198
 dbcsr_add_anytype                72764 14.1    5.957    5.957   81.139   81.139
 qs_energies_init_hamiltonians     1001  6.0    0.007    0.007   74.296   74.296
 -------------------------------------------------------------------------------

 The number of warnings for this run is : 1
 
 -------------------------------------------------------------------------------
  **** **** ******  **  PROGRAM ENDED AT                 2026-02-04 19:59:06.273
 ***** ** ***  *** **   PROGRAM RAN ON             hyacinth-6t9hh.device.utk.edu
 **    ****   ******    PROGRAM RAN BY                           mackenziehenley
 ***** **    ** ** **   PROGRAM PROCESS ID                                 87303
  **** **  *******  **  PROGRAM STOPPED IN     /Users/mackenziehenley/cp2k/IceIh
