 DBCSR| CPU Multiplication driver                                           BLAS (U)
 DBCSR| Multrec recursion limit                                              512 (U)
 DBCSR| Multiplication stack size                                           1000 (D)
 DBCSR| Maximum elements for images                                    UNLIMITED (U)
 DBCSR| Multiplicative factor virtual images                                   1 (U)
 DBCSR| Use multiplication densification                                       T (D)
 DBCSR| Multiplication size stacks                                             3 (U)
 DBCSR| Use memory pool for CPU allocation                                     F (U)
 DBCSR| OMP: Current number of threads                                         8
 DBCSR| OMP: Max number of threads                                             8
 DBCSR| Split modifier for TAS multiplication algorithm                  1.0E+00 (U)


  **** **** ******  **  PROGRAM STARTED AT               2026-02-04 18:24:56.668
 ***** ** ***  *** **   PROGRAM STARTED ON         hyacinth-6t9hh.device.utk.edu
 **    ****   ******    PROGRAM STARTED BY                       mackenziehenley
 ***** **    ** ** **   PROGRAM PROCESS ID                                 86761
  **** **  *******  **  PROGRAM STARTED IN     /Users/mackenziehenley/cp2k/IceIh

 CP2K| version string:                                       CP2K version 2025.1
 CP2K| source code revision number:                                             
 CP2K| cp2kflags: omp libint fftw3 libxc no_statm_access                        
 CP2K| is freely available from                            https://www.cp2k.org/
 CP2K| Program compiled at                                   2025-01-01 12:26:53
 CP2K| Program compiled on                                                      
 CP2K| Program compiled for                                                arm64
 CP2K| Data directory path      /opt/homebrew/Cellar/cp2k/2025.1/share/cp2k/data
 CP2K| Input file name                                            ice_laptop.inp

 GLOBAL| Force Environment number                                              1
 GLOBAL| Basis set file name                                           BASIS_SET
 GLOBAL| Potential file name                                           POTENTIAL
 GLOBAL| MM Potential file name                                     MM_POTENTIAL
 GLOBAL| Coordinate file name                                     ice_laptop.xyz
 GLOBAL| Method name                                                        CP2K
 GLOBAL| Project name                                               Ice_Ih_Small
 GLOBAL| Run type                                                        GEO_OPT
 GLOBAL| FFT library                                                       FFTW3
 GLOBAL| Diagonalization library                                       ScaLAPACK
 GLOBAL| DGEMM library                                                      BLAS
 GLOBAL| Orthonormality check for eigenvectors                          DISABLED
 GLOBAL| Matrix multiplication library                                 ScaLAPACK
 GLOBAL| All-to-all communication in single precision                          F
 GLOBAL| FFTs using library dependent lengths                                  F
 GLOBAL| Grid backend                                                       AUTO
 GLOBAL| Global print level                                                  LOW
 GLOBAL| MPI I/O enabled                                                       T
 GLOBAL| Total number of message passing processes                             1
 GLOBAL| Number of threads for this process                                    8
 GLOBAL| This output is from process                                           0
 GLOBAL| OpenMP stack size per thread (OMP_STACKSIZE)                    default
 GLOBAL| CPU model name                                                  UNKNOWN
 GLOBAL| CPUID                                                              2000

 MEMORY| system memory details [Kb]
 MEMORY|                        rank 0           min           max       average
 MEMORY| MemTotal                    0             0             0             0
 MEMORY| MemFree                     0             0             0             0
 MEMORY| Buffers                     0             0             0             0
 MEMORY| Cached                      0             0             0             0
 MEMORY| Slab                        0             0             0             0
 MEMORY| SReclaimable                0             0             0             0
 MEMORY| MemLikelyFree               0             0             0             0


 GENERATE|  Preliminary Number of Bonds generated:                             0
 GENERATE|  Achieved consistency in connectivity generation.


              #####   #####        # #     # ######  ######   #####  
             #     # #     #      #  ##    # #     # #     # #     # 
             #     # #           #   # #   # #     # #     # #     # 
             #     #  #####     #    #  #  # #     # #     # #     # 
             #   # #       #   #     #   # # #     # #     # #     # 
             #    #  #     #  #      #    ## #     # #     # #     # 
              #### #  #####  #       #     # ######  ######   #####  
                                                                     
                              T. Laino and J. Hutter                 
                                                                     
                                   2008 - 2015                       


 SEMIEMPIRICAL|                             Coulomb Integral cutoff/taper values
 SEMIEMPIRICAL| Cutoff [a.u.]                                             22.677
 SEMIEMPIRICAL| Taper  [a.u.]                                             22.677
 SEMIEMPIRICAL| Range  [a.u.]                                              0.000


 SEMIEMPIRICAL|                     Exchange Integral cutoff/taper was redefined
 SEMIEMPIRICAL| Default value [a.u.]                                      22.677
 SEMIEMPIRICAL| New value [a.u.]                                           6.950


 SEMIEMPIRICAL|                            Exchange Integral cutoff/taper values
 SEMIEMPIRICAL| Cutoff [a.u.]                                              6.950
 SEMIEMPIRICAL| Taper  [a.u.]                                              6.950
 SEMIEMPIRICAL| Range  [a.u.]                                              0.000



 TOTAL NUMBERS AND MAXIMUM NUMBERS

  Total number of            - Atomic kinds:                                   2
                             - Atoms:                                         96
                             - Shell sets:                                   128
                             - Shells:                                       128
                             - Primitive Cartesian functions:                768
                             - Cartesian basis functions:                    192
                             - Spherical basis functions:                    192

  Maximum angular momentum of the orbital basis functions:                     1


 SCF PARAMETERS         Density guess:                                    ATOMIC
                        --------------------------------------------------------
                        max_scf:                                             200
                        max_scf_history:                                       0
                        max_diis:                                              4
                        --------------------------------------------------------
                        eps_scf:                                        1.00E-05
                        eps_scf_history:                                0.00E+00
                        eps_diis:                                       1.00E-01
                        eps_eigval:                                     1.00E-05
                        --------------------------------------------------------
                        level_shift [a.u.]:                             0.000000
                        --------------------------------------------------------
                        No outer SCF

 BFGS| Use rational function optimization for step estimation:                NO
 BFGS| Use model Hessian for initial guess:                                  YES
 BFGS| Restart Hessian:                                                       NO
 BFGS| Trust radius:                                                       0.472

 *******************************************************************************
 ***                     STARTING GEOMETRY OPTIMIZATION                      ***
 ***                                   BFGS                                  ***
 *******************************************************************************

 Number of electrons:                                                        256
 Number of occupied orbitals:                                                128
 Number of molecular orbitals:                                               128

 Number of orbital functions:                                                192
 Number of independent orbital functions:                                    192

 Extrapolation method: initial_guess


 SCF WAVEFUNCTION OPTIMIZATION

  ----------------------------------- OT ---------------------------------------
  Minimizer      : DIIS                : direct inversion
                                         in the iterative subspace
                                         using   7 DIIS vectors
                                         safer DIIS on
  Preconditioner : FULL_SINGLE_INVERSE : inversion of 
                                         H + eS - 2*(Sc)(c^T*H*c+const)(Sc)^T
  Precond_solver : DEFAULT
  stepsize       :    0.08000000                  energy_gap     :    0.08000000
  eps_taylor     :   0.10000E-15                  max_taylor     :             4
  ----------------------------------- OT ---------------------------------------

  Step     Update method      Time    Convergence         Total energy    Change
  ------------------------------------------------------------------------------
     1 OT DIIS     0.80E-01    1.1     0.12138477      -308.1354209613 -3.08E+02
     2 OT DIIS     0.80E-01    0.2     0.17687130      -313.9138823126 -5.78E+00
     3 OT DIIS     0.80E-01    0.2     0.07697772      -326.0641761238 -1.22E+01
     4 OT DIIS     0.80E-01    0.2     0.07323700      -331.8672698225 -5.80E+00
     5 OT DIIS     0.80E-01    0.2     0.06405235      -336.9243663727 -5.06E+00
     6 OT DIIS     0.80E-01    0.2     0.05691922      -343.0958316858 -6.17E+00
     7 OT DIIS     0.80E-01    0.2     0.04934727      -346.8289258534 -3.73E+00
     8 OT DIIS     0.80E-01    0.2     0.04579551      -350.4535754861 -3.62E+00
     9 OT DIIS     0.80E-01    0.3     0.03835373      -355.0120768734 -4.56E+00
    10 OT DIIS     0.80E-01    0.2     0.03502821      -358.7852984850 -3.77E+00
    11 OT DIIS     0.80E-01    0.2     0.02885013      -362.3014651332 -3.52E+00
    12 OT DIIS     0.80E-01    0.2     0.02319457      -364.8370665809 -2.54E+00
    13 OT DIIS     0.80E-01    0.2     0.02000025      -366.5010541063 -1.66E+00
    14 OT DIIS     0.80E-01    0.2     0.01667756      -367.8283110726 -1.33E+00
    15 OT DIIS     0.80E-01    0.2     0.01554941      -368.5945158001 -7.66E-01
    16 OT DIIS     0.80E-01    0.2     0.01293465      -369.4037146347 -8.09E-01
    17 OT DIIS     0.80E-01    0.2     0.01314214      -369.8643098649 -4.61E-01
    18 OT DIIS     0.80E-01    0.2     0.01022313      -370.3952108145 -5.31E-01
    19 OT DIIS     0.80E-01    0.2     0.00983240      -370.6892192813 -2.94E-01
    20 OT DIIS     0.80E-01    0.2     0.00896614      -370.9589232832 -2.70E-01
    21 OT DIIS     0.80E-01    0.2     0.00818973      -371.2098147439 -2.51E-01
    22 OT DIIS     0.80E-01    0.2     0.00730943      -371.4909901767 -2.81E-01
    23 OT DIIS     0.80E-01    0.2     0.00551197      -371.7921054654 -3.01E-01
    24 OT DIIS     0.80E-01    0.2     0.00482811      -371.8644301686 -7.23E-02
    25 OT DIIS     0.80E-01    0.2     0.00400118      -371.9735710617 -1.09E-01
    26 OT DIIS     0.80E-01    0.2     0.00407445      -371.9613875506  1.22E-02
    27 OT DIIS     0.80E-01    0.2     0.00259444      -372.0305105101 -6.91E-02
    28 OT DIIS     0.80E-01    0.2     0.00214923      -372.0570040254 -2.65E-02
    29 OT DIIS     0.80E-01    0.2     0.00188754      -372.0764056616 -1.94E-02
    30 OT DIIS     0.80E-01    0.2     0.00157280      -372.0998145135 -2.34E-02
    31 OT DIIS     0.80E-01    0.2     0.00135976      -372.1140277005 -1.42E-02
    32 OT DIIS     0.80E-01    0.2     0.00124652      -372.1249234980 -1.09E-02
    33 OT DIIS     0.80E-01    0.2     0.00114106      -372.1335484573 -8.62E-03
    34 OT DIIS     0.80E-01    0.2     0.00100176      -372.1457119665 -1.22E-02
    35 OT DIIS     0.80E-01    0.2     0.00090702      -372.1545950775 -8.88E-03
    36 OT DIIS     0.80E-01    0.3     0.00082943      -372.1608596308 -6.26E-03
    37 OT DIIS     0.80E-01    0.2     0.00074949      -372.1670015812 -6.14E-03
    38 OT DIIS     0.80E-01    0.2     0.00067150      -372.1717237028 -4.72E-03
    39 OT DIIS     0.80E-01    0.2     0.00060800      -372.1763344859 -4.61E-03
    40 OT DIIS     0.80E-01    0.2     0.00056067      -372.1797607869 -3.43E-03
    41 OT DIIS     0.80E-01    0.2     0.00052661      -372.1818080237 -2.05E-03
    42 OT DIIS     0.80E-01    0.2     0.00048728      -372.1842636408 -2.46E-03
    43 OT DIIS     0.80E-01    0.2     0.00044964      -372.1870115356 -2.75E-03
    44 OT DIIS     0.80E-01    0.2     0.00043099      -372.1883692357 -1.36E-03
    45 OT DIIS     0.80E-01    0.2     0.00040822      -372.1899158630 -1.55E-03
    46 OT DIIS     0.80E-01    0.2     0.00038472      -372.1912426881 -1.33E-03
    47 OT DIIS     0.80E-01    0.2     0.00036320      -372.1927500586 -1.51E-03
    48 OT DIIS     0.80E-01    0.2     0.00034729      -372.1939902909 -1.24E-03
    49 OT DIIS     0.80E-01    0.2     0.00033457      -372.1949857845 -9.95E-04
    50 OT DIIS     0.80E-01    0.2     0.00031879      -372.1960318818 -1.05E-03
    51 OT DIIS     0.80E-01    0.2     0.00030391      -372.1971932631 -1.16E-03
    52 OT DIIS     0.80E-01    0.2     0.00029569      -372.1980030635 -8.10E-04
    53 OT DIIS     0.80E-01    0.2     0.00028453      -372.1989347014 -9.32E-04
    54 OT DIIS     0.80E-01    0.2     0.00027227      -372.1997578251 -8.23E-04
    55 OT DIIS     0.80E-01    0.2     0.00026021      -372.2006075129 -8.50E-04
    56 OT DIIS     0.80E-01    0.2     0.00025105      -372.2013129399 -7.05E-04
    57 OT DIIS     0.80E-01    0.2     0.00024391      -372.2019398078 -6.27E-04
    58 OT DIIS     0.80E-01    0.2     0.00023530      -372.2025490984 -6.09E-04
    59 OT DIIS     0.80E-01    0.2     0.00022593      -372.2032619827 -7.13E-04
    60 OT DIIS     0.80E-01    0.2     0.00022073      -372.2037513158 -4.89E-04
    61 OT DIIS     0.80E-01    0.2     0.00021433      -372.2042529688 -5.02E-04
    62 OT DIIS     0.80E-01    0.2     0.00020788      -372.2047102614 -4.57E-04
    63 OT DIIS     0.80E-01    0.2     0.00020130      -372.2051742569 -4.64E-04
    64 OT DIIS     0.80E-01    0.2     0.00019562      -372.2055808267 -4.07E-04
    65 OT DIIS     0.80E-01    0.3     0.00019142      -372.2059294762 -3.49E-04
    66 OT DIIS     0.80E-01    0.2     0.00018713      -372.2062333300 -3.04E-04
    67 OT DIIS     0.80E-01    0.2     0.00018226      -372.2066024637 -3.69E-04
    68 OT DIIS     0.80E-01    0.2     0.00017918      -372.2069069341 -3.04E-04
    69 OT DIIS     0.80E-01    0.2     0.00017583      -372.2071805235 -2.74E-04
    70 OT DIIS     0.80E-01    0.2     0.00017226      -372.2074425524 -2.62E-04
    71 OT DIIS     0.80E-01    0.2     0.00016880      -372.2077117412 -2.69E-04
    72 OT DIIS     0.80E-01    0.2     0.00016548      -372.2079720287 -2.60E-04
    73 OT DIIS     0.80E-01    0.2     0.00016278      -372.2082185514 -2.47E-04
    74 OT DIIS     0.80E-01    0.2     0.00016016      -372.2084319635 -2.13E-04
    75 OT DIIS     0.80E-01    0.2     0.00015697      -372.2086951007 -2.63E-04
    76 OT DIIS     0.80E-01    0.2     0.00015468      -372.2089214405 -2.26E-04
    77 OT DIIS     0.80E-01    0.2     0.00015245      -372.2091399493 -2.19E-04
    78 OT DIIS     0.80E-01    0.2     0.00014982      -372.2093543598 -2.14E-04
    79 OT DIIS     0.80E-01    0.2     0.00014707      -372.2095856754 -2.31E-04
    80 OT DIIS     0.80E-01    0.2     0.00014433      -372.2098041113 -2.18E-04
    81 OT DIIS     0.80E-01    0.2     0.00014208      -372.2100038113 -2.00E-04
    82 OT DIIS     0.80E-01    0.2     0.00014000      -372.2101763001 -1.72E-04
    83 OT DIIS     0.80E-01    0.2     0.00013737      -372.2103935195 -2.17E-04
    84 OT DIIS     0.80E-01    0.2     0.00013536      -372.2105797084 -1.86E-04
    85 OT DIIS     0.80E-01    0.2     0.00013349      -372.2107477323 -1.68E-04
    86 OT DIIS     0.80E-01    0.2     0.00013150      -372.2109016465 -1.54E-04
    87 OT DIIS     0.80E-01    0.2     0.00012940      -372.2110659562 -1.64E-04
    88 OT DIIS     0.80E-01    0.2     0.00012743      -372.2112168573 -1.51E-04
    89 OT DIIS     0.80E-01    0.2     0.00012577      -372.2113524356 -1.36E-04
    90 OT DIIS     0.80E-01    0.2     0.00012429      -372.2114636594 -1.11E-04
    91 OT DIIS     0.80E-01    0.2     0.00012257      -372.2115987442 -1.35E-04
    92 OT DIIS     0.80E-01    0.2     0.00012121      -372.2117161774 -1.17E-04
    93 OT DIIS     0.80E-01    0.2     0.00011993      -372.2118319415 -1.16E-04
    94 OT DIIS     0.80E-01    0.2     0.00011868      -372.2119323431 -1.00E-04
    95 OT DIIS     0.80E-01    0.3     0.00011721      -372.2120444312 -1.12E-04
    96 OT DIIS     0.80E-01    0.2     0.00011590      -372.2121493818 -1.05E-04
    97 OT DIIS     0.80E-01    0.2     0.00011475      -372.2122497789 -1.00E-04
    98 OT DIIS     0.80E-01    0.2     0.00011368      -372.2123366333 -8.69E-05
    99 OT DIIS     0.80E-01    0.2     0.00011238      -372.2124486670 -1.12E-04
   100 OT DIIS     0.80E-01    0.2     0.00011130      -372.2125450314 -9.64E-05
   101 OT DIIS     0.80E-01    0.2     0.00011025      -372.2126452213 -1.00E-04
   102 OT DIIS     0.80E-01    0.2     0.00010928      -372.2127354627 -9.02E-05
   103 OT DIIS     0.80E-01    0.2     0.00010797      -372.2128406338 -1.05E-04
   104 OT DIIS     0.80E-01    0.2     0.00010679      -372.2129419389 -1.01E-04
   105 OT DIIS     0.80E-01    0.2     0.00010568      -372.2130391187 -9.72E-05
   106 OT DIIS     0.80E-01    0.2     0.00010468      -372.2131209361 -8.18E-05
   107 OT DIIS     0.80E-01    0.2     0.00010347      -372.2132253666 -1.04E-04
   108 OT DIIS     0.80E-01    0.2     0.00010242      -372.2133169357 -9.16E-05
   109 OT DIIS     0.80E-01    0.2     0.00010141      -372.2134096032 -9.27E-05
   110 OT DIIS     0.80E-01    0.2     0.00010051      -372.2134871373 -7.75E-05
   111 OT DIIS     0.80E-01    0.2     0.00009935      -372.2135750935 -8.80E-05
   112 OT DIIS     0.80E-01    0.2     0.00009833      -372.2136563100 -8.12E-05
   113 OT DIIS     0.80E-01    0.3     0.00009738      -372.2137348232 -7.85E-05
   114 OT DIIS     0.80E-01    0.2     0.00009656      -372.2137966811 -6.19E-05
   115 OT DIIS     0.80E-01    0.3     0.00009556      -372.2138737041 -7.70E-05
   116 OT DIIS     0.80E-01    0.3     0.00009475      -372.2139397839 -6.61E-05
   117 OT DIIS     0.80E-01    0.2     0.00009397      -372.2140070040 -6.72E-05
   118 OT DIIS     0.80E-01    0.3     0.00009327      -372.2140652073 -5.82E-05
   119 OT DIIS     0.80E-01    0.3     0.00009241      -372.2141291422 -6.39E-05
   120 OT DIIS     0.80E-01    0.2     0.00009164      -372.2141880540 -5.89E-05
   121 OT DIIS     0.80E-01    0.2     0.00009093      -372.2142474365 -5.94E-05
   122 OT DIIS     0.80E-01    0.2     0.00009032      -372.2142959049 -4.85E-05
   123 OT DIIS     0.80E-01    0.2     0.00008952      -372.2143598789 -6.40E-05
   124 OT DIIS     0.80E-01    0.2     0.00008885      -372.2144178400 -5.80E-05
   125 OT DIIS     0.80E-01    0.2     0.00008821      -372.2144754729 -5.76E-05
   126 OT DIIS     0.80E-01    0.2     0.00008761      -372.2145290155 -5.35E-05
   127 OT DIIS     0.80E-01    0.2     0.00008687      -372.2145904342 -6.14E-05
   128 OT DIIS     0.80E-01    0.3     0.00008613      -372.2146509258 -6.05E-05
   129 OT DIIS     0.80E-01    0.2     0.00008543      -372.2147124042 -6.15E-05
   130 OT DIIS     0.80E-01    0.2     0.00008482      -372.2147615556 -4.92E-05
   131 OT DIIS     0.80E-01    0.3     0.00008403      -372.2148253752 -6.38E-05
   132 OT DIIS     0.80E-01    0.2     0.00008336      -372.2148843525 -5.90E-05
   133 OT DIIS     0.80E-01    0.2     0.00008269      -372.2149422673 -5.79E-05
   134 OT DIIS     0.80E-01    0.2     0.00008208      -372.2149957216 -5.35E-05
   135 OT DIIS     0.80E-01    0.3     0.00008135      -372.2150512306 -5.55E-05
   136 OT DIIS     0.80E-01    0.3     0.00008064      -372.2151041649 -5.29E-05
   137 OT DIIS     0.80E-01    0.3     0.00008000      -372.2151563533 -5.22E-05
   138 OT DIIS     0.80E-01    0.3     0.00007946      -372.2151974287 -4.11E-05
   139 OT DIIS     0.80E-01    0.2     0.00007875      -372.2152482060 -5.08E-05
   140 OT DIIS     0.80E-01    0.2     0.00007820      -372.2152924237 -4.42E-05
   141 OT DIIS     0.80E-01    0.2     0.00007767      -372.2153341679 -4.17E-05
   142 OT DIIS     0.80E-01    0.2     0.00007719      -372.2153741719 -4.00E-05
   143 OT DIIS     0.80E-01    0.3     0.00007662      -372.2154159427 -4.18E-05
   144 OT DIIS     0.80E-01    0.3     0.00007605      -372.2154562277 -4.03E-05
   145 OT DIIS     0.80E-01    0.2     0.00007556      -372.2154953178 -3.91E-05
   146 OT DIIS     0.80E-01    0.2     0.00007514      -372.2155270768 -3.18E-05
   147 OT DIIS     0.80E-01    0.2     0.00007460      -372.2155678474 -4.08E-05
   148 OT DIIS     0.80E-01    0.2     0.00007414      -372.2156063995 -3.86E-05
   149 OT DIIS     0.80E-01    0.2     0.00007369      -372.2156435761 -3.72E-05
   150 OT DIIS     0.80E-01    0.2     0.00007327      -372.2156802943 -3.67E-05
   151 OT DIIS     0.80E-01    0.3     0.00007278      -372.2157184912 -3.82E-05
   152 OT DIIS     0.80E-01    0.3     0.00007226      -372.2157584102 -3.99E-05
   153 OT DIIS     0.80E-01    0.3     0.00007179      -372.2157988553 -4.04E-05
   154 OT DIIS     0.80E-01    0.2     0.00007136      -372.2158325859 -3.37E-05
   155 OT DIIS     0.80E-01    0.2     0.00007081      -372.2158744758 -4.19E-05
   156 OT DIIS     0.80E-01    0.2     0.00007036      -372.2159136268 -3.92E-05
   157 OT DIIS     0.80E-01    0.2     0.00006990      -372.2159519584 -3.83E-05
   158 OT DIIS     0.80E-01    0.3     0.00006946      -372.2159902761 -3.83E-05
   159 OT DIIS     0.80E-01    0.3     0.00006894      -372.2160286934 -3.84E-05
   160 OT DIIS     0.80E-01    0.3     0.00006841      -372.2160670177 -3.83E-05
   161 OT DIIS     0.80E-01    0.3     0.00006795      -372.2161032134 -3.62E-05
   162 OT DIIS     0.80E-01    0.2     0.00006754      -372.2161336136 -3.04E-05
   163 OT DIIS     0.80E-01    0.3     0.00006703      -372.2161699755 -3.64E-05
   164 OT DIIS     0.80E-01    0.2     0.00006661      -372.2162025584 -3.26E-05
   165 OT DIIS     0.80E-01    0.3     0.00006621      -372.2162327088 -3.02E-05
   166 OT DIIS     0.80E-01    0.3     0.00006584      -372.2162625677 -2.99E-05
   167 OT DIIS     0.80E-01    0.3     0.00006542      -372.2162915945 -2.90E-05
   168 OT DIIS     0.80E-01    0.3     0.00006499      -372.2163213346 -2.97E-05
   169 OT DIIS     0.80E-01    0.3     0.00006461      -372.2163492451 -2.79E-05
   170 OT DIIS     0.80E-01    0.2     0.00006428      -372.2163726973 -2.35E-05
   171 OT DIIS     0.80E-01    0.2     0.00006389      -372.2164007628 -2.81E-05
   172 OT DIIS     0.80E-01    0.2     0.00006355      -372.2164276480 -2.69E-05
   173 OT DIIS     0.80E-01    0.2     0.00006321      -372.2164537821 -2.61E-05
   174 OT DIIS     0.80E-01    0.2     0.00006290      -372.2164803978 -2.66E-05
   175 OT DIIS     0.80E-01    0.2     0.00006253      -372.2165071131 -2.67E-05
   176 OT DIIS     0.80E-01    0.2     0.00006215      -372.2165355848 -2.85E-05
   177 OT DIIS     0.80E-01    0.2     0.00006180      -372.2165637975 -2.82E-05
   178 OT DIIS     0.80E-01    0.2     0.00006147      -372.2165883819 -2.46E-05
   179 OT DIIS     0.80E-01    0.2     0.00006107      -372.2166182202 -2.98E-05
   180 OT DIIS     0.80E-01    0.2     0.00006073      -372.2166462612 -2.80E-05
   181 OT DIIS     0.80E-01    0.2     0.00006038      -372.2166741660 -2.79E-05
   182 OT DIIS     0.80E-01    0.2     0.00006005      -372.2167028665 -2.87E-05
   183 OT DIIS     0.80E-01    0.2     0.00005966      -372.2167307586 -2.79E-05
   184 OT DIIS     0.80E-01    0.2     0.00005925      -372.2167596574 -2.89E-05
   185 OT DIIS     0.80E-01    0.2     0.00005889      -372.2167870477 -2.74E-05
   186 OT DIIS     0.80E-01    0.2     0.00005857      -372.2168101826 -2.31E-05
   187 OT DIIS     0.80E-01    0.2     0.00005817      -372.2168374312 -2.72E-05
   188 OT DIIS     0.80E-01    0.2     0.00005784      -372.2168620944 -2.47E-05
   189 OT DIIS     0.80E-01    0.2     0.00005752      -372.2168853137 -2.32E-05
   190 OT DIIS     0.80E-01    0.2     0.00005723      -372.2169084017 -2.31E-05
   191 OT DIIS     0.80E-01    0.2     0.00005689      -372.2169305088 -2.21E-05
   192 OT DIIS     0.80E-01    0.2     0.00005655      -372.2169531603 -2.27E-05
   193 OT DIIS     0.80E-01    0.2     0.00005625      -372.2169745418 -2.14E-05
   194 OT DIIS     0.80E-01    0.2     0.00005599      -372.2169922228 -1.77E-05
   195 OT DIIS     0.80E-01    0.2     0.00005568      -372.2170132394 -2.10E-05
   196 OT DIIS     0.80E-01    0.2     0.00005541      -372.2170331341 -1.99E-05
   197 OT DIIS     0.80E-01    0.2     0.00005514      -372.2170526639 -1.95E-05
   198 OT DIIS     0.80E-01    0.2     0.00005490      -372.2170725732 -1.99E-05
   199 OT DIIS     0.80E-01    0.3     0.00005462      -372.2170918676 -1.93E-05
   200 OT DIIS     0.80E-01    0.2     0.00005432      -372.2171124320 -2.06E-05

  Leaving inner SCF loop after reaching   200 steps.


  Core-core repulsion energy [eV]:                        1646494.21880209608935
  Core Hamiltonian energy [eV]:                            -16712.46414547248423
  Two-electron integral energy [eV]:                     -3279820.59476198162884
  Electronic energy [eV]:                                -1656622.76152646332048

  Total energy [eV]:                                       -10128.54272436714564

  Atomic reference energy [eV]:                             10135.12221567713459
  Heat of formation [kcal/mol]:                               151.72668608484315

 *** WARNING in qs_scf.F:609 :: SCF run NOT converged ***


 ENERGY| Total FORCE_EVAL ( QS ) energy [hartree]           -372.217133477075549

 OPT| **************************************************************************
 OPT| Step number                                                              0
 OPT| Optimization method                                                   BFGS
 OPT| Total energy [hartree]                                     -372.2171334771
 OPT| Used time [s]                                                       51.984
 OPT| **************************************************************************

 --------------------------
 OPTIMIZATION STEP:      1
 --------------------------

 Number of electrons:                                                        256
 Number of occupied orbitals:                                                128
 Number of molecular orbitals:                                               128

 Number of orbital functions:                                                192
 Number of independent orbital functions:                                    192

 Extrapolation method: ASPC


 SCF WAVEFUNCTION OPTIMIZATION

  ----------------------------------- OT ---------------------------------------
  Minimizer      : DIIS                : direct inversion
                                         in the iterative subspace
                                         using   7 DIIS vectors
                                         safer DIIS on
  Preconditioner : FULL_SINGLE_INVERSE : inversion of 
                                         H + eS - 2*(Sc)(c^T*H*c+const)(Sc)^T
  Precond_solver : DEFAULT
  stepsize       :    0.08000000                  energy_gap     :    0.08000000
  eps_taylor     :   0.10000E-15                  max_taylor     :             4
  ----------------------------------- OT ---------------------------------------

  Step     Update method      Time    Convergence         Total energy    Change
  ------------------------------------------------------------------------------
     1 OT DIIS     0.80E-01    1.1     0.00332606      -372.4513758409 -3.72E+02
     2 OT DIIS     0.80E-01    0.2     0.00335199      -372.4682732517 -1.69E-02
     3 OT DIIS     0.80E-01    0.2     0.00266491      -372.4756642241 -7.39E-03
     4 OT DIIS     0.80E-01    0.3     0.00151873      -372.5075938775 -3.19E-02
     5 OT DIIS     0.80E-01    0.3     0.00151817      -372.5145289051 -6.94E-03
     6 OT DIIS     0.80E-01    0.3     0.00090213      -372.5241312613 -9.60E-03
     7 OT DIIS     0.80E-01    0.3     0.00069183      -372.5266675178 -2.54E-03
     8 OT DIIS     0.80E-01    0.3     0.00027040      -372.5273914525 -7.24E-04
     9 OT DIIS     0.80E-01    0.3     0.00020308      -372.5275604811 -1.69E-04
    10 OT DIIS     0.80E-01    0.3     0.00021360      -372.5276161020 -5.56E-05
    11 OT DIIS     0.80E-01    0.3     0.00008722      -372.5276591012 -4.30E-05
    12 OT DIIS     0.80E-01    0.3     0.00008629      -372.5276751563 -1.61E-05
    13 OT DIIS     0.80E-01    0.3     0.00006194      -372.5276830604 -7.90E-06
    14 OT DIIS     0.80E-01    0.3     0.00004332      -372.5276915666 -8.51E-06
    15 OT DIIS     0.80E-01    0.3     0.00004060      -372.5276936634 -2.10E-06
    16 OT DIIS     0.80E-01    0.3     0.00002268      -372.5276945374 -8.74E-07
    17 OT DIIS     0.80E-01    0.3     0.00001780      -372.5276949724 -4.35E-07
    18 OT DIIS     0.80E-01    0.3     0.00001572      -372.5276956290 -6.57E-07
    19 OT DIIS     0.80E-01    0.3     0.00001424      -372.5276957687 -1.40E-07
    20 OT DIIS     0.80E-01    0.3     0.00000979      -372.5276964204 -6.52E-07

  *** SCF run converged in    20 steps ***


  Core-core repulsion energy [eV]:                        1646285.53770212503150
  Core Hamiltonian energy [eV]:                            -16673.52187532599419
  Two-electron integral energy [eV]:                     -3279498.01994258398190
  Electronic energy [eV]:                                -1656422.53184661804698

  Total energy [eV]:                                       -10136.99414449305004

  Atomic reference energy [eV]:                             10135.12221567713459
  Heat of formation [kcal/mol]:                               -43.16770741747030

 ENERGY| Total FORCE_EVAL ( QS ) energy [hartree]           -372.527696474462573

 OPT| **************************************************************************
 OPT| Step number                                                              1
 OPT| Optimization method                                                   BFGS
 OPT| Total energy [hartree]                                     -372.5276964745
 OPT| Effective energy change [hartree]                            -0.3105629974
 OPT| Predicted energy change [hartree]                            -0.1871352325
 OPT| Scaling factor                                                0.0000000000
 OPT| Step size                                                     0.0693135483
 OPT| Trust radius                                                  0.4724315332
 OPT| Decrease in energy                                                     YES
 OPT| Used time [s]                                                        7.717
 OPT|
 OPT| Maximum step size                                             0.0693135483
 OPT| Convergence limit for maximum step size                       0.0030000000
 OPT| Maximum step size is converged                                          NO
 OPT|
 OPT| RMS step size                                                 0.0329054266
 OPT| Convergence limit for RMS step size                           0.0015000000
 OPT| RMS step size is converged                                              NO
 OPT|
 OPT| Maximum gradient                                              0.0738450718
 OPT| Convergence limit for maximum gradient                        0.0004500000
 OPT| Maximum gradient is converged                                           NO
 OPT|
 OPT| RMS gradient                                                  0.0389328678
 OPT| Convergence limit for RMS gradient                            0.0003000000
 OPT| RMS gradient is converged                                               NO
 OPT| **************************************************************************

 --------------------------
 OPTIMIZATION STEP:      2
 --------------------------

 Number of electrons:                                                        256
 Number of occupied orbitals:                                                128
 Number of molecular orbitals:                                               128

 Number of orbital functions:                                                192
 Number of independent orbital functions:                                    192

 Extrapolation method: ASPC


 SCF WAVEFUNCTION OPTIMIZATION

  ----------------------------------- OT ---------------------------------------
  Minimizer      : DIIS                : direct inversion
                                         in the iterative subspace
                                         using   7 DIIS vectors
                                         safer DIIS on
  Preconditioner : FULL_SINGLE_INVERSE : inversion of 
                                         H + eS - 2*(Sc)(c^T*H*c+const)(Sc)^T
  Precond_solver : DEFAULT
  stepsize       :    0.08000000                  energy_gap     :    0.08000000
  eps_taylor     :   0.10000E-15                  max_taylor     :             4
  ----------------------------------- OT ---------------------------------------

  Step     Update method      Time    Convergence         Total energy    Change
  ------------------------------------------------------------------------------
     1 OT DIIS     0.80E-01    1.0     0.01956761      -372.1260032207 -3.72E+02
     2 OT DIIS     0.80E-01    0.3     0.02849783      -372.3956494361 -2.70E-01
     3 OT DIIS     0.80E-01    0.3     0.01230699      -372.7103928329 -3.15E-01
     4 OT DIIS     0.80E-01    0.2     0.01303677      -373.4016157144 -6.91E-01
     5 OT DIIS     0.80E-01    0.2     0.00746753      -373.4498595552 -4.82E-02
     6 OT DIIS     0.80E-01    0.2     0.00758191      -373.4417274775  8.13E-03
     7 OT DIIS     0.80E-01    0.2     0.00780645      -373.4830101385 -4.13E-02
     8 OT DIIS     0.80E-01    0.2     0.00163138      -373.5265897607 -4.36E-02
     9 OT DIIS     0.80E-01    0.2     0.00180403      -373.5285764271 -1.99E-03
    10 OT DIIS     0.80E-01    0.2     0.00099863      -373.5317248763 -3.15E-03
    11 OT DIIS     0.80E-01    0.2     0.00042381      -373.5325271135 -8.02E-04
    12 OT DIIS     0.80E-01    0.2     0.00032320      -373.5326726736 -1.46E-04
    13 OT DIIS     0.80E-01    0.2     0.00032911      -373.5328238728 -1.51E-04
    14 OT DIIS     0.80E-01    0.3     0.00033382      -373.5329778144 -1.54E-04
    15 OT DIIS     0.80E-01    0.2     0.00034419      -373.5331006612 -1.23E-04
    16 OT DIIS     0.80E-01    0.2     0.00018278      -373.5333186996 -2.18E-04
    17 OT DIIS     0.80E-01    0.2     0.00009419      -373.5334014110 -8.27E-05
    18 OT DIIS     0.80E-01    0.2     0.00014616      -373.5334170717 -1.57E-05
    19 OT DIIS     0.80E-01    0.3     0.00006418      -373.5334316773 -1.46E-05
    20 OT DIIS     0.80E-01    0.2     0.00008227      -373.5334381128 -6.44E-06
    21 OT DIIS     0.80E-01    0.3     0.00004455      -373.5334426190 -4.51E-06
    22 OT DIIS     0.80E-01    0.2     0.00004184      -373.5334433801 -7.61E-07
    23 OT DIIS     0.80E-01    0.3     0.00003708      -373.5334439470 -5.67E-07
    24 OT DIIS     0.80E-01    0.2     0.00002017      -373.5334443743 -4.27E-07
    25 OT DIIS     0.80E-01    0.3     0.00001441      -373.5334446731 -2.99E-07
    26 OT DIIS     0.80E-01    0.2     0.00001833      -373.5334449549 -2.82E-07
    27 OT DIIS     0.80E-01    0.3     0.00001143      -373.5334449407  1.42E-08
    28 OT DIIS     0.80E-01    0.2     0.00001180      -373.5334451399 -1.99E-07
    29 OT DIIS     0.80E-01    0.2     0.00000921      -373.5334451885 -4.86E-08

  *** SCF run converged in    29 steps ***


  Core-core repulsion energy [eV]:                        1649881.89654275588691
  Core Hamiltonian energy [eV]:                            -16468.97128863292528
  Two-electron integral energy [eV]:                     -3287154.57442882005125
  Electronic energy [eV]:                                -1660046.25850304285996

  Total energy [eV]:                                       -10164.36196028697486

  Atomic reference energy [eV]:                             10135.12221567713459
  Heat of formation [kcal/mol]:                              -674.28458259115121

 ENERGY| Total FORCE_EVAL ( QS ) energy [hartree]           -373.533445303088229

 OPT| **************************************************************************
 OPT| Step number                                                              2
 OPT| Optimization method                                                   BFGS
 OPT| Total energy [hartree]                                     -373.5334453031
 OPT| Effective energy change [hartree]                            -1.0057488286
 OPT| Predicted energy change [hartree]                            -0.8711685474
 OPT| Scaling factor                                                0.0000000000
 OPT| Step size                                                     0.2941516299
 OPT| Trust radius                                                  0.4724315332
 OPT| Decrease in energy                                                     YES
 OPT| Used time [s]                                                        9.469
 OPT|
 OPT| Maximum step size                                             0.2941516299
 OPT| Convergence limit for maximum step size                       0.0030000000
 OPT| Maximum step size is converged                                          NO
 OPT|
 OPT| RMS step size                                                 0.1621212243
 OPT| Convergence limit for RMS step size                           0.0015000000
 OPT| RMS step size is converged                                              NO
 OPT|
 OPT| Maximum gradient                                              0.0322524812
 OPT| Convergence limit for maximum gradient                        0.0004500000
 OPT| Maximum gradient is converged                                           NO
 OPT|
 OPT| RMS gradient                                                  0.0127249101
 OPT| Convergence limit for RMS gradient                            0.0003000000
 OPT| RMS gradient is converged                                               NO
 OPT| **************************************************************************

 --------------------------
 OPTIMIZATION STEP:      3
 --------------------------

 Number of electrons:                                                        256
 Number of occupied orbitals:                                                128
 Number of molecular orbitals:                                               128

 Number of orbital functions:                                                192
 Number of independent orbital functions:                                    192

 Extrapolation method: ASPC


 SCF WAVEFUNCTION OPTIMIZATION

  ----------------------------------- OT ---------------------------------------
  Minimizer      : DIIS                : direct inversion
                                         in the iterative subspace
                                         using   7 DIIS vectors
                                         safer DIIS on
  Preconditioner : FULL_SINGLE_INVERSE : inversion of 
                                         H + eS - 2*(Sc)(c^T*H*c+const)(Sc)^T
  Precond_solver : DEFAULT
  stepsize       :    0.08000000                  energy_gap     :    0.08000000
  eps_taylor     :   0.10000E-15                  max_taylor     :             4
  ----------------------------------- OT ---------------------------------------

  Step     Update method      Time    Convergence         Total energy    Change
  ------------------------------------------------------------------------------
     1 OT DIIS     0.80E-01    1.0     0.07382299      -367.4522729648 -3.67E+02
     2 OT DIIS     0.80E-01    0.2     0.11401350      -367.5958987860 -1.44E-01
     3 OT DIIS     0.80E-01    0.2     0.02285555      -372.0758276925 -4.48E+00
     4 OT DIIS     0.80E-01    0.2     0.02174659      -372.9601635658 -8.84E-01
     5 OT DIIS     0.80E-01    0.2     0.01136073      -373.1683826746 -2.08E-01
     6 OT DIIS     0.80E-01    0.2     0.01005408      -373.4229096171 -2.55E-01
     7 OT DIIS     0.80E-01    0.2     0.00388986      -373.5392708769 -1.16E-01
     8 OT DIIS     0.80E-01    0.2     0.00363163      -373.5634115470 -2.41E-02
     9 OT DIIS     0.80E-01    0.2     0.00170038      -373.5699661111 -6.55E-03
    10 OT DIIS     0.80E-01    0.2     0.00126080      -373.5734130326 -3.45E-03
    11 OT DIIS     0.80E-01    0.2     0.00076058      -373.5742603453 -8.47E-04
    12 OT DIIS     0.80E-01    0.2     0.00064060      -373.5750553168 -7.95E-04
    13 OT DIIS     0.80E-01    0.2     0.00050730      -373.5753288624 -2.74E-04
    14 OT DIIS     0.80E-01    0.2     0.00049977      -373.5756784552 -3.50E-04
    15 OT DIIS     0.80E-01    0.2     0.00040619      -373.5763025697 -6.24E-04
    16 OT DIIS     0.80E-01    0.3     0.00038934      -373.5765561002 -2.54E-04
    17 OT DIIS     0.80E-01    0.2     0.00021443      -373.5766921185 -1.36E-04
    18 OT DIIS     0.80E-01    0.2     0.00013562      -373.5767450566 -5.29E-05
    19 OT DIIS     0.80E-01    0.2     0.00011772      -373.5767651303 -2.01E-05
    20 OT DIIS     0.80E-01    0.2     0.00009137      -373.5767808702 -1.57E-05
    21 OT DIIS     0.80E-01    0.3     0.00009357      -373.5767898852 -9.01E-06
    22 OT DIIS     0.80E-01    0.2     0.00006482      -373.5767948826 -5.00E-06
    23 OT DIIS     0.80E-01    0.2     0.00005064      -373.5767967263 -1.84E-06
    24 OT DIIS     0.80E-01    0.2     0.00003724      -373.5767984130 -1.69E-06
    25 OT DIIS     0.80E-01    0.2     0.00003067      -373.5767992867 -8.74E-07
    26 OT DIIS     0.80E-01    0.2     0.00002722      -373.5768002238 -9.37E-07
    27 OT DIIS     0.80E-01    0.2     0.00002467      -373.5768009383 -7.15E-07
    28 OT DIIS     0.80E-01    0.2     0.00001981      -373.5768011781 -2.40E-07
    29 OT DIIS     0.80E-01    0.2     0.00001589      -373.5768015381 -3.60E-07
    30 OT DIIS     0.80E-01    0.2     0.00001407      -373.5768017855 -2.47E-07
    31 OT DIIS     0.80E-01    0.2     0.00001441      -373.5768020419 -2.56E-07
    32 OT DIIS     0.80E-01    0.2     0.00001319      -373.5768022328 -1.91E-07
    33 OT DIIS     0.80E-01    0.2     0.00001060      -373.5768024078 -1.75E-07
    34 OT DIIS     0.80E-01    0.2     0.00000814      -373.5768025732 -1.65E-07

  *** SCF run converged in    34 steps ***


  Core-core repulsion energy [eV]:                        1648863.71603081538342
  Core Hamiltonian energy [eV]:                            -16517.41521658426791
  Two-electron integral energy [eV]:                     -3285023.68517790921032
  Electronic energy [eV]:                                -1659029.25780553882942

  Total energy [eV]:                                       -10165.54177472358788

  Atomic reference energy [eV]:                             10135.12221567713459
  Heat of formation [kcal/mol]:                              -701.49175199504657

 ENERGY| Total FORCE_EVAL ( QS ) energy [hartree]           -373.576802655741631

 OPT| **************************************************************************
 OPT| Step number                                                              3
 OPT| Optimization method                                                   BFGS
 OPT| Total energy [hartree]                                     -373.5768026557
 OPT| Effective energy change [hartree]                            -0.0433573527
 OPT| Predicted energy change [hartree]                            -0.0597363135
 OPT| Scaling factor                                                0.0000000000
 OPT| Step size                                                     0.1258593419
 OPT| Trust radius                                                  0.4724315332
 OPT| Decrease in energy                                                     YES
 OPT| Used time [s]                                                       10.540
 OPT|
 OPT| Maximum step size                                             0.1258593419
 OPT| Convergence limit for maximum step size                       0.0030000000
 OPT| Maximum step size is converged                                          NO
 OPT|
 OPT| RMS step size                                                 0.0371633346
 OPT| Convergence limit for RMS step size                           0.0015000000
 OPT| RMS step size is converged                                              NO
 OPT|
 OPT| Maximum gradient                                              0.0228968334
 OPT| Convergence limit for maximum gradient                        0.0004500000
 OPT| Maximum gradient is converged                                           NO
 OPT|
 OPT| RMS gradient                                                  0.0095562833
 OPT| Convergence limit for RMS gradient                            0.0003000000
 OPT| RMS gradient is converged                                               NO
 OPT| **************************************************************************

 --------------------------
 OPTIMIZATION STEP:      4
 --------------------------

 Number of electrons:                                                        256
 Number of occupied orbitals:                                                128
 Number of molecular orbitals:                                               128

 Number of orbital functions:                                                192
 Number of independent orbital functions:                                    192

 Extrapolation method: ASPC


 SCF WAVEFUNCTION OPTIMIZATION

  ----------------------------------- OT ---------------------------------------
  Minimizer      : DIIS                : direct inversion
                                         in the iterative subspace
                                         using   7 DIIS vectors
                                         safer DIIS on
  Preconditioner : FULL_SINGLE_INVERSE : inversion of 
                                         H + eS - 2*(Sc)(c^T*H*c+const)(Sc)^T
  Precond_solver : DEFAULT
  stepsize       :    0.08000000                  energy_gap     :    0.08000000
  eps_taylor     :   0.10000E-15                  max_taylor     :             4
  ----------------------------------- OT ---------------------------------------

  Step     Update method      Time    Convergence         Total energy    Change
  ------------------------------------------------------------------------------
     1 OT DIIS     0.80E-01    1.0     0.04394320      -370.3398519205 -3.70E+02
     2 OT DIIS     0.80E-01    0.2     0.08128803      -369.4155230670  9.24E-01
     3 OT DIIS     0.80E-01    0.3     0.01699786      -371.6807117528 -2.27E+00
     4 OT DIIS     0.80E-01    0.2     0.01983035      -372.0698863393 -3.89E-01
     5 OT DIIS     0.80E-01    0.2     0.02127723      -373.2314529209 -1.16E+00
     6 OT DIIS     0.80E-01    0.2     0.01123842      -373.3802809285 -1.49E-01
     7 OT DIIS     0.80E-01    0.2     0.00566664      -373.4416438767 -6.14E-02
     8 OT DIIS     0.80E-01    0.2     0.00430410      -373.5693575532 -1.28E-01
     9 OT DIIS     0.80E-01    0.2     0.00733667      -373.5570900271  1.23E-02
    10 OT DIIS     0.80E-01    0.2     0.00817084      -373.5511961479  5.89E-03
    11 OT DIIS     0.80E-01    0.2     0.00174404      -373.6018460955 -5.06E-02
    12 OT DIIS     0.80E-01    0.2     0.00163208      -373.6029985834 -1.15E-03
    13 OT DIIS     0.80E-01    0.2     0.00130847      -373.6037556180 -7.57E-04
    14 OT DIIS     0.80E-01    0.2     0.00053892      -373.6044457075 -6.90E-04
    15 OT DIIS     0.80E-01    0.2     0.00037646      -373.6046515673 -2.06E-04
    16 OT DIIS     0.80E-01    0.2     0.00031620      -373.6050531353 -4.02E-04
    17 OT DIIS     0.80E-01    0.2     0.00028445      -373.6053271373 -2.74E-04
    18 OT DIIS     0.80E-01    0.2     0.00023638      -373.6055923725 -2.65E-04
    19 OT DIIS     0.80E-01    0.2     0.00022660      -373.6056582017 -6.58E-05
    20 OT DIIS     0.80E-01    0.2     0.00020238      -373.6057701847 -1.12E-04
    21 OT DIIS     0.80E-01    0.2     0.00014529      -373.6057920444 -2.19E-05
    22 OT DIIS     0.80E-01    0.2     0.00011062      -373.6057975478 -5.50E-06
    23 OT DIIS     0.80E-01    0.3     0.00008779      -373.6058042320 -6.68E-06
    24 OT DIIS     0.80E-01    0.2     0.00003912      -373.6058084445 -4.21E-06
    25 OT DIIS     0.80E-01    0.2     0.00003212      -373.6058103949 -1.95E-06
    26 OT DIIS     0.80E-01    0.2     0.00002779      -373.6058116345 -1.24E-06
    27 OT DIIS     0.80E-01    0.2     0.00002616      -373.6058123171 -6.83E-07
    28 OT DIIS     0.80E-01    0.2     0.00002075      -373.6058128985 -5.81E-07
    29 OT DIIS     0.80E-01    0.2     0.00001992      -373.6058131423 -2.44E-07
    30 OT DIIS     0.80E-01    0.2     0.00001896      -373.6058134852 -3.43E-07
    31 OT DIIS     0.80E-01    0.2     0.00001634      -373.6058138647 -3.80E-07
    32 OT DIIS     0.80E-01    0.2     0.00001372      -373.6058138740 -9.28E-09
    33 OT DIIS     0.80E-01    0.2     0.00001058      -373.6058141320 -2.58E-07
    34 OT DIIS     0.80E-01    0.2     0.00000792      -373.6058143243 -1.92E-07

  *** SCF run converged in    34 steps ***


  Core-core repulsion energy [eV]:                        1648899.17263110424392
  Core Hamiltonian energy [eV]:                            -16510.52864121244056
  Two-electron integral energy [eV]:                     -3285109.95042902417481
  Electronic energy [eV]:                                -1659065.50385572458617

  Total energy [eV]:                                       -10166.33122462039319

  Atomic reference energy [eV]:                             10135.12221567713459
  Heat of formation [kcal/mol]:                              -719.69690054360160

 ENERGY| Total FORCE_EVAL ( QS ) energy [hartree]           -373.605814407645084

 OPT| **************************************************************************
 OPT| Step number                                                              4
 OPT| Optimization method                                                   BFGS
 OPT| Total energy [hartree]                                     -373.6058144076
 OPT| Effective energy change [hartree]                            -0.0290117519
 OPT| Predicted energy change [hartree]                            -0.0173474024
 OPT| Scaling factor                                                0.0000000000
 OPT| Step size                                                     0.0289462218
 OPT| Trust radius                                                  0.4724315332
 OPT| Decrease in energy                                                     YES
 OPT| Used time [s]                                                       10.620
 OPT|
 OPT| Maximum step size                                             0.0289462218
 OPT| Convergence limit for maximum step size                       0.0030000000
 OPT| Maximum step size is converged                                          NO
 OPT|
 OPT| RMS step size                                                 0.0130056987
 OPT| Convergence limit for RMS step size                           0.0015000000
 OPT| RMS step size is converged                                              NO
 OPT|
 OPT| Maximum gradient                                              0.0117366086
 OPT| Convergence limit for maximum gradient                        0.0004500000
 OPT| Maximum gradient is converged                                           NO
 OPT|
 OPT| RMS gradient                                                  0.0054473395
 OPT| Convergence limit for RMS gradient                            0.0003000000
 OPT| RMS gradient is converged                                               NO
 OPT| **************************************************************************

 --------------------------
 OPTIMIZATION STEP:      5
 --------------------------

 Number of electrons:                                                        256
 Number of occupied orbitals:                                                128
 Number of molecular orbitals:                                               128

 Number of orbital functions:                                                192
 Number of independent orbital functions:                                    192

 Extrapolation method: ASPC


 SCF WAVEFUNCTION OPTIMIZATION

  ----------------------------------- OT ---------------------------------------
  Minimizer      : DIIS                : direct inversion
                                         in the iterative subspace
                                         using   7 DIIS vectors
                                         safer DIIS on
  Preconditioner : FULL_SINGLE_INVERSE : inversion of 
                                         H + eS - 2*(Sc)(c^T*H*c+const)(Sc)^T
  Precond_solver : DEFAULT
  stepsize       :    0.08000000                  energy_gap     :    0.08000000
  eps_taylor     :   0.10000E-15                  max_taylor     :             4
  ----------------------------------- OT ---------------------------------------

  Step     Update method      Time    Convergence         Total energy    Change
  ------------------------------------------------------------------------------
     1 OT DIIS     0.80E-01    1.0     0.02752905      -372.1663439988 -3.72E+02
     2 OT DIIS     0.80E-01    0.3     0.03332273      -372.6141253404 -4.48E-01
     3 OT DIIS     0.80E-01    0.3     0.01218101      -373.0893896894 -4.75E-01
     4 OT DIIS     0.80E-01    0.2     0.00955290      -373.4764976033 -3.87E-01
     5 OT DIIS     0.80E-01    0.2     0.00482300      -373.5248589614 -4.84E-02
     6 OT DIIS     0.80E-01    0.3     0.00400171      -373.5922300239 -6.74E-02
     7 OT DIIS     0.80E-01    0.2     0.00321891      -373.6122204035 -2.00E-02
     8 OT DIIS     0.80E-01    0.2     0.00206596      -373.6186006217 -6.38E-03
     9 OT DIIS     0.80E-01    0.2     0.00082239      -373.6222194357 -3.62E-03
    10 OT DIIS     0.80E-01    0.2     0.00055730      -373.6234099944 -1.19E-03
    11 OT DIIS     0.80E-01    0.2     0.00048653      -373.6237004037 -2.90E-04
    12 OT DIIS     0.80E-01    0.2     0.00039750      -373.6242443547 -5.44E-04
    13 OT DIIS     0.80E-01    0.2     0.00042867      -373.6245083102 -2.64E-04
    14 OT DIIS     0.80E-01    0.2     0.00029633      -373.6251529814 -6.45E-04
    15 OT DIIS     0.80E-01    0.2     0.00016128      -373.6253384049 -1.85E-04
    16 OT DIIS     0.80E-01    0.2     0.00021228      -373.6253478138 -9.41E-06
    17 OT DIIS     0.80E-01    0.2     0.00009351      -373.6253796656 -3.19E-05
    18 OT DIIS     0.80E-01    0.2     0.00007437      -373.6253964202 -1.68E-05
    19 OT DIIS     0.80E-01    0.2     0.00006468      -373.6254069090 -1.05E-05
    20 OT DIIS     0.80E-01    0.2     0.00005682      -373.6254083675 -1.46E-06
    21 OT DIIS     0.80E-01    0.2     0.00003485      -373.6254102443 -1.88E-06
    22 OT DIIS     0.80E-01    0.2     0.00002381      -373.6254112581 -1.01E-06
    23 OT DIIS     0.80E-01    0.2     0.00002185      -373.6254116851 -4.27E-07
    24 OT DIIS     0.80E-01    0.2     0.00002383      -373.6254126266 -9.42E-07
    25 OT DIIS     0.80E-01    0.3     0.00001860      -373.6254127585 -1.32E-07
    26 OT DIIS     0.80E-01    0.2     0.00001528      -373.6254131478 -3.89E-07
    27 OT DIIS     0.80E-01    0.2     0.00001046      -373.6254134282 -2.80E-07
    28 OT DIIS     0.80E-01    0.2     0.00000945      -373.6254135605 -1.32E-07

  *** SCF run converged in    28 steps ***


  Core-core repulsion energy [eV]:                        1649059.08213004795834
  Core Hamiltonian energy [eV]:                            -16509.52780359498138
  Two-electron integral energy [eV]:                     -3285432.83774682460353
  Electronic energy [eV]:                                -1659225.94667700724676

  Total energy [eV]:                                       -10166.86454695929569

  Atomic reference energy [eV]:                             10135.12221567713459
  Heat of formation [kcal/mol]:                              -731.99560682414631

 ENERGY| Total FORCE_EVAL ( QS ) energy [hartree]           -373.625413661844505

 OPT| **************************************************************************
 OPT| Step number                                                              5
 OPT| Optimization method                                                   BFGS
 OPT| Total energy [hartree]                                     -373.6254136618
 OPT| Effective energy change [hartree]                            -0.0195992542
 OPT| Predicted energy change [hartree]                            -0.0165364370
 OPT| Scaling factor                                                0.0000000000
 OPT| Step size                                                     0.0503136393
 OPT| Trust radius                                                  0.4724315332
 OPT| Decrease in energy                                                     YES
 OPT| Used time [s]                                                        9.156
 OPT|
 OPT| Maximum step size                                             0.0503136393
 OPT| Convergence limit for maximum step size                       0.0030000000
 OPT| Maximum step size is converged                                          NO
 OPT|
 OPT| RMS step size                                                 0.0223863017
 OPT| Convergence limit for RMS step size                           0.0015000000
 OPT| RMS step size is converged                                              NO
 OPT|
 OPT| Maximum gradient                                              0.0028460406
 OPT| Convergence limit for maximum gradient                        0.0004500000
 OPT| Maximum gradient is converged                                           NO
 OPT|
 OPT| RMS gradient                                                  0.0009211121
 OPT| Convergence limit for RMS gradient                            0.0003000000
 OPT| RMS gradient is converged                                               NO
 OPT| **************************************************************************

 --------------------------
 OPTIMIZATION STEP:      6
 --------------------------

 Number of electrons:                                                        256
 Number of occupied orbitals:                                                128
 Number of molecular orbitals:                                               128

 Number of orbital functions:                                                192
 Number of independent orbital functions:                                    192

 Extrapolation method: ASPC


 SCF WAVEFUNCTION OPTIMIZATION

  ----------------------------------- OT ---------------------------------------
  Minimizer      : DIIS                : direct inversion
                                         in the iterative subspace
                                         using   7 DIIS vectors
                                         safer DIIS on
  Preconditioner : FULL_SINGLE_INVERSE : inversion of 
                                         H + eS - 2*(Sc)(c^T*H*c+const)(Sc)^T
  Precond_solver : DEFAULT
  stepsize       :    0.08000000                  energy_gap     :    0.08000000
  eps_taylor     :   0.10000E-15                  max_taylor     :             4
  ----------------------------------- OT ---------------------------------------

  Step     Update method      Time    Convergence         Total energy    Change
  ------------------------------------------------------------------------------
     1 OT DIIS     0.80E-01    1.0     0.00387686      -373.5800131703 -3.74E+02
     2 OT DIIS     0.80E-01    0.2     0.00363802      -373.6003427074 -2.03E-02
     3 OT DIIS     0.80E-01    0.3     0.00297628      -373.6073999288 -7.06E-03
     4 OT DIIS     0.80E-01    0.2     0.00243354      -373.6201629236 -1.28E-02
     5 OT DIIS     0.80E-01    0.3     0.00090677      -373.6229123523 -2.75E-03
     6 OT DIIS     0.80E-01    0.3     0.00068316      -373.6239932382 -1.08E-03
     7 OT DIIS     0.80E-01    0.3     0.00069366      -373.6247439649 -7.51E-04
     8 OT DIIS     0.80E-01    0.3     0.00046562      -373.6257309196 -9.87E-04
     9 OT DIIS     0.80E-01    0.3     0.00034639      -373.6257998787 -6.90E-05
    10 OT DIIS     0.80E-01    0.3     0.00014143      -373.6259319786 -1.32E-04
    11 OT DIIS     0.80E-01    0.3     0.00013135      -373.6259526972 -2.07E-05
    12 OT DIIS     0.80E-01    0.3     0.00011028      -373.6259799943 -2.73E-05
    13 OT DIIS     0.80E-01    0.3     0.00013231      -373.6260050119 -2.50E-05
    14 OT DIIS     0.80E-01    0.3     0.00008577      -373.6260340552 -2.90E-05
    15 OT DIIS     0.80E-01    0.3     0.00006943      -373.6260459513 -1.19E-05
    16 OT DIIS     0.80E-01    0.3     0.00003675      -373.6260512693 -5.32E-06
    17 OT DIIS     0.80E-01    0.3     0.00003653      -373.6260520930 -8.24E-07
    18 OT DIIS     0.80E-01    0.3     0.00002288      -373.6260532949 -1.20E-06
    19 OT DIIS     0.80E-01    0.3     0.00002361      -373.6260539141 -6.19E-07
    20 OT DIIS     0.80E-01    0.3     0.00002216      -373.6260543352 -4.21E-07
    21 OT DIIS     0.80E-01    0.3     0.00001459      -373.6260545279 -1.93E-07
    22 OT DIIS     0.80E-01    0.3     0.00001087      -373.6260545481 -2.02E-08
    23 OT DIIS     0.80E-01    0.3     0.00000778      -373.6260546516 -1.04E-07

  *** SCF run converged in    23 steps ***


  Core-core repulsion energy [eV]:                        1648976.20019278768450
  Core Hamiltonian energy [eV]:                            -16511.19749522778875
  Two-electron integral energy [eV]:                     -3285263.76937899040058
  Electronic energy [eV]:                                -1659143.08218472287990

  Total energy [eV]:                                       -10166.88199193533183

  Atomic reference energy [eV]:                             10135.12221567713459
  Heat of formation [kcal/mol]:                              -732.39789756032440

 ENERGY| Total FORCE_EVAL ( QS ) energy [hartree]           -373.626054703810951

 OPT| **************************************************************************
 OPT| Step number                                                              6
 OPT| Optimization method                                                   BFGS
 OPT| Total energy [hartree]                                     -373.6260547038
 OPT| Effective energy change [hartree]                            -0.0006410420
 OPT| Predicted energy change [hartree]                            -0.0003108350
 OPT| Scaling factor                                                0.0000000000
 OPT| Step size                                                     0.0092179583
 OPT| Trust radius                                                  0.4724315332
 OPT| Decrease in energy                                                     YES
 OPT| Used time [s]                                                        8.108
 OPT|
 OPT| Maximum step size                                             0.0092179583
 OPT| Convergence limit for maximum step size                       0.0030000000
 OPT| Maximum step size is converged                                          NO
 OPT|
 OPT| RMS step size                                                 0.0037591974
 OPT| Convergence limit for RMS step size                           0.0015000000
 OPT| RMS step size is converged                                              NO
 OPT|
 OPT| Maximum gradient                                              0.0024664037
 OPT| Convergence limit for maximum gradient                        0.0004500000
 OPT| Maximum gradient is converged                                           NO
 OPT|
 OPT| RMS gradient                                                  0.0007118021
 OPT| Convergence limit for RMS gradient                            0.0003000000
 OPT| RMS gradient is converged                                               NO
 OPT| **************************************************************************

 --------------------------
 OPTIMIZATION STEP:      7
 --------------------------

 Number of electrons:                                                        256
 Number of occupied orbitals:                                                128
 Number of molecular orbitals:                                               128

 Number of orbital functions:                                                192
 Number of independent orbital functions:                                    192

 Extrapolation method: ASPC


 SCF WAVEFUNCTION OPTIMIZATION

  ----------------------------------- OT ---------------------------------------
  Minimizer      : DIIS                : direct inversion
                                         in the iterative subspace
                                         using   7 DIIS vectors
                                         safer DIIS on
  Preconditioner : FULL_SINGLE_INVERSE : inversion of 
                                         H + eS - 2*(Sc)(c^T*H*c+const)(Sc)^T
  Precond_solver : DEFAULT
  stepsize       :    0.08000000                  energy_gap     :    0.08000000
  eps_taylor     :   0.10000E-15                  max_taylor     :             4
  ----------------------------------- OT ---------------------------------------

  Step     Update method      Time    Convergence         Total energy    Change
  ------------------------------------------------------------------------------
     1 OT DIIS     0.80E-01    1.0     0.00119562      -373.6235078676 -3.74E+02
     2 OT DIIS     0.80E-01    0.2     0.00167799      -373.6244223217 -9.14E-04
     3 OT DIIS     0.80E-01    0.2     0.00074161      -373.6254406964 -1.02E-03
     4 OT DIIS     0.80E-01    0.2     0.00076085      -373.6262158443 -7.75E-04
     5 OT DIIS     0.80E-01    0.2     0.00042870      -373.6270394091 -8.24E-04
     6 OT DIIS     0.80E-01    0.2     0.00029155      -373.6275100923 -4.71E-04
     7 OT DIIS     0.80E-01    0.2     0.00015859      -373.6275662370 -5.61E-05
     8 OT DIIS     0.80E-01    0.2     0.00013955      -373.6276127664 -4.65E-05
     9 OT DIIS     0.80E-01    0.3     0.00010448      -373.6276230253 -1.03E-05
    10 OT DIIS     0.80E-01    0.2     0.00007790      -373.6276429903 -2.00E-05
    11 OT DIIS     0.80E-01    0.2     0.00005936      -373.6276470845 -4.09E-06
    12 OT DIIS     0.80E-01    0.2     0.00005214      -373.6276508802 -3.80E-06
    13 OT DIIS     0.80E-01    0.2     0.00003895      -373.6276538563 -2.98E-06
    14 OT DIIS     0.80E-01    0.2     0.00003868      -373.6276567996 -2.94E-06
    15 OT DIIS     0.80E-01    0.2     0.00003219      -373.6276594649 -2.67E-06
    16 OT DIIS     0.80E-01    0.2     0.00002381      -373.6276614157 -1.95E-06
    17 OT DIIS     0.80E-01    0.2     0.00001826      -373.6276619940 -5.78E-07
    18 OT DIIS     0.80E-01    0.2     0.00001127      -373.6276623030 -3.09E-07
    19 OT DIIS     0.80E-01    0.2     0.00001017      -373.6276624762 -1.73E-07
    20 OT DIIS     0.80E-01    0.2     0.00001010      -373.6276625368 -6.06E-08
    21 OT DIIS     0.80E-01    0.2     0.00000923      -373.6276626066 -6.98E-08

  *** SCF run converged in    21 steps ***


  Core-core repulsion energy [eV]:                        1648952.62234191247262
  Core Hamiltonian energy [eV]:                            -16513.05158186897097
  Two-electron integral energy [eV]:                     -3285212.99301331676543
  Electronic energy [eV]:                                -1659119.54808852751739

  Total energy [eV]:                                       -10166.92574661498656

  Atomic reference energy [eV]:                             10135.12221567713459
  Heat of formation [kcal/mol]:                              -733.40690452329773

 ENERGY| Total FORCE_EVAL ( QS ) energy [hartree]           -373.627662629864062

 OPT| **************************************************************************
 OPT| Step number                                                              7
 OPT| Optimization method                                                   BFGS
 OPT| Total energy [hartree]                                     -373.6276626299
 OPT| Effective energy change [hartree]                            -0.0016079261
 OPT| Predicted energy change [hartree]                            -0.0003338019
 OPT| Scaling factor                                                0.0000000000
 OPT| Step size                                                     0.0158156519
 OPT| Trust radius                                                  0.4724315332
 OPT| Decrease in energy                                                     YES
 OPT| Used time [s]                                                        7.210
 OPT|
 OPT| Maximum step size                                             0.0158156519
 OPT| Convergence limit for maximum step size                       0.0030000000
 OPT| Maximum step size is converged                                          NO
 OPT|
 OPT| RMS step size                                                 0.0071875314
 OPT| Convergence limit for RMS step size                           0.0015000000
 OPT| RMS step size is converged                                              NO
 OPT|
 OPT| Maximum gradient                                              0.0020231917
 OPT| Convergence limit for maximum gradient                        0.0004500000
 OPT| Maximum gradient is converged                                           NO
 OPT|
 OPT| RMS gradient                                                  0.0008401970
 OPT| Convergence limit for RMS gradient                            0.0003000000
 OPT| RMS gradient is converged                                               NO
 OPT| **************************************************************************

 --------------------------
 OPTIMIZATION STEP:      8
 --------------------------

 Number of electrons:                                                        256
 Number of occupied orbitals:                                                128
 Number of molecular orbitals:                                               128

 Number of orbital functions:                                                192
 Number of independent orbital functions:                                    192

 Extrapolation method: ASPC


 SCF WAVEFUNCTION OPTIMIZATION

  ----------------------------------- OT ---------------------------------------
  Minimizer      : DIIS                : direct inversion
                                         in the iterative subspace
                                         using   7 DIIS vectors
                                         safer DIIS on
  Preconditioner : FULL_SINGLE_INVERSE : inversion of 
                                         H + eS - 2*(Sc)(c^T*H*c+const)(Sc)^T
  Precond_solver : DEFAULT
  stepsize       :    0.08000000                  energy_gap     :    0.08000000
  eps_taylor     :   0.10000E-15                  max_taylor     :             4
  ----------------------------------- OT ---------------------------------------

  Step     Update method      Time    Convergence         Total energy    Change
  ------------------------------------------------------------------------------
     1 OT DIIS     0.80E-01    1.0     0.00137246      -373.6253306797 -3.74E+02
     2 OT DIIS     0.80E-01    0.2     0.00167982      -373.6274450006 -2.11E-03
     3 OT DIIS     0.80E-01    0.2     0.00099689      -373.6286524727 -1.21E-03
     4 OT DIIS     0.80E-01    0.2     0.00099534      -373.6309411813 -2.29E-03
     5 OT DIIS     0.80E-01    0.2     0.00058268      -373.6326518367 -1.71E-03
     6 OT DIIS     0.80E-01    0.3     0.00038538      -373.6333751294 -7.23E-04
     7 OT DIIS     0.80E-01    0.3     0.00024008      -373.6334860417 -1.11E-04
     8 OT DIIS     0.80E-01    0.3     0.00020532      -373.6336498095 -1.64E-04
     9 OT DIIS     0.80E-01    0.3     0.00020724      -373.6336818369 -3.20E-05
    10 OT DIIS     0.80E-01    0.3     0.00013170      -373.6337780524 -9.62E-05
    11 OT DIIS     0.80E-01    0.3     0.00011346      -373.6337967243 -1.87E-05
    12 OT DIIS     0.80E-01    0.3     0.00009262      -373.6338158851 -1.92E-05
    13 OT DIIS     0.80E-01    0.9     0.00007266      -373.6338276416 -1.18E-05
    14 OT DIIS     0.80E-01    0.3     0.00007386      -373.6338351872 -7.55E-06
    15 OT DIIS     0.80E-01    0.3     0.00004949      -373.6338393495 -4.16E-06
    16 OT DIIS     0.80E-01    0.3     0.00002937      -373.6338412434 -1.89E-06
    17 OT DIIS     0.80E-01    0.3     0.00002443      -373.6338415628 -3.19E-07
    18 OT DIIS     0.80E-01    0.3     0.00001510      -373.6338418514 -2.89E-07
    19 OT DIIS     0.80E-01    0.3     0.00001363      -373.6338421385 -2.87E-07
    20 OT DIIS     0.80E-01    0.3     0.00001428      -373.6338422441 -1.06E-07
    21 OT DIIS     0.80E-01    0.3     0.00001265      -373.6338424487 -2.05E-07
    22 OT DIIS     0.80E-01    0.3     0.00000925      -373.6338425064 -5.77E-08

  *** SCF run converged in    22 steps ***


  Core-core repulsion energy [eV]:                        1649290.76039998768829
  Core Hamiltonian energy [eV]:                            -16517.67145792584779
  Two-electron integral energy [eV]:                     -3285880.36570460628718
  Electronic energy [eV]:                                -1659457.85431022895500

  Total energy [eV]:                                       -10167.09391024121942

  Atomic reference energy [eV]:                             10135.12221567713459
  Heat of formation [kcal/mol]:                              -737.28485017686000

 ENERGY| Total FORCE_EVAL ( QS ) energy [hartree]           -373.633842562703649

 OPT| **************************************************************************
 OPT| Step number                                                              8
 OPT| Optimization method                                                   BFGS
 OPT| Total energy [hartree]                                     -373.6338425627
 OPT| Effective energy change [hartree]                            -0.0061799328
 OPT| Predicted energy change [hartree]                            -0.0010968203
 OPT| Scaling factor                                                0.0000000000
 OPT| Step size                                                     0.0607783173
 OPT| Trust radius                                                  0.4724315332
 OPT| Decrease in energy                                                     YES
 OPT| Used time [s]                                                        8.549
 OPT|
 OPT| Maximum step size                                             0.0607783173
 OPT| Convergence limit for maximum step size                       0.0030000000
 OPT| Maximum step size is converged                                          NO
 OPT|
 OPT| RMS step size                                                 0.0281341554
 OPT| Convergence limit for RMS step size                           0.0015000000
 OPT| RMS step size is converged                                              NO
 OPT|
 OPT| Maximum gradient                                              0.0061675075
 OPT| Convergence limit for maximum gradient                        0.0004500000
 OPT| Maximum gradient is converged                                           NO
 OPT|
 OPT| RMS gradient                                                  0.0015460479
 OPT| Convergence limit for RMS gradient                            0.0003000000
 OPT| RMS gradient is converged                                               NO
 OPT| **************************************************************************

 --------------------------
 OPTIMIZATION STEP:      9
 --------------------------

 Number of electrons:                                                        256
 Number of occupied orbitals:                                                128
 Number of molecular orbitals:                                               128

 Number of orbital functions:                                                192
 Number of independent orbital functions:                                    192

 Extrapolation method: ASPC


 SCF WAVEFUNCTION OPTIMIZATION

  ----------------------------------- OT ---------------------------------------
  Minimizer      : DIIS                : direct inversion
                                         in the iterative subspace
                                         using   7 DIIS vectors
                                         safer DIIS on
  Preconditioner : FULL_SINGLE_INVERSE : inversion of 
                                         H + eS - 2*(Sc)(c^T*H*c+const)(Sc)^T
  Precond_solver : DEFAULT
  stepsize       :    0.08000000                  energy_gap     :    0.08000000
  eps_taylor     :   0.10000E-15                  max_taylor     :             4
  ----------------------------------- OT ---------------------------------------

  Step     Update method      Time    Convergence         Total energy    Change
  ------------------------------------------------------------------------------
     1 OT DIIS     0.80E-01    1.0     0.00203617      -373.6224876088 -3.74E+02
     2 OT DIIS     0.80E-01    0.2     0.00398411      -373.6198823493  2.61E-03
     3 OT DIIS     0.80E-01    0.2     0.00068090      -373.6248250784 -4.94E-03
     4 OT DIIS     0.80E-01    0.2     0.00073140      -373.6251179534 -2.93E-04
     5 OT DIIS     0.80E-01    0.2     0.00038379      -373.6255972917 -4.79E-04
     6 OT DIIS     0.80E-01   98.5     0.00030263      -373.6260392210 -4.42E-04
     7 OT DIIS     0.80E-01    0.5     0.00014963      -373.6261213419 -8.21E-05
     8 OT DIIS     0.80E-01    0.9     0.00013863      -373.6261725919 -5.12E-05
     9 OT DIIS     0.80E-01    0.4     0.00012013      -373.6261850611 -1.25E-05
    10 OT DIIS     0.80E-01    0.4     0.00008697      -373.6262132558 -2.82E-05
[...]

  *** SCF run converged in    19 steps ***


  Core-core repulsion energy [eV]:                        1653743.19687087251805
  Core Hamiltonian energy [eV]:                            -16515.28642501442664
  Two-electron integral energy [eV]:                     -3294791.87284484086558
  Electronic energy [eV]:                                -1663911.22284743492492

  Total energy [eV]:                                       -10168.02597656232501

  Atomic reference energy [eV]:                             10135.12221567713459
  Heat of formation [kcal/mol]:                              -758.77881186020431

 ENERGY| Total FORCE_EVAL ( QS ) energy [hartree]           -373.668095390072267

 OPT| **************************************************************************
 OPT| Step number                                                             99
 OPT| Optimization method                                                   BFGS
 OPT| Total energy [hartree]                                     -373.6680953901
 OPT| Effective energy change [hartree]                            -0.0005406988
 OPT| Predicted energy change [hartree]                            -0.0002000365
 OPT| Scaling factor                                                0.8529602957
 OPT| Step size                                                     0.0383087329
 OPT| Trust radius                                                  0.4724315332
 OPT| Decrease in energy                                                     YES
 OPT| Used time [s]                                                        7.051
 OPT|
 OPT| Maximum step size                                             0.0383087329
 OPT| Convergence limit for maximum step size                       0.0030000000
 OPT| Maximum step size is converged                                          NO
 OPT|
 OPT| RMS step size                                                 0.0107572886
 OPT| Convergence limit for RMS step size                           0.0015000000
 OPT| RMS step size is converged                                              NO
 OPT|
 OPT| Maximum gradient                                              0.0030672242
 OPT| Convergence limit for maximum gradient                        0.0004500000
 OPT| Maximum gradient is converged                                           NO
 OPT|
 OPT| RMS gradient                                                  0.0006336062
 OPT| Convergence limit for RMS gradient                            0.0003000000
 OPT| RMS gradient is converged                                               NO
 OPT| **************************************************************************

 --------------------------
 OPTIMIZATION STEP:    100
 --------------------------

 Number of electrons:                                                        256
 Number of occupied orbitals:                                                128
 Number of molecular orbitals:                                               128

 Number of orbital functions:                                                192
 Number of independent orbital functions:                                    192

 Extrapolation method: ASPC


 SCF WAVEFUNCTION OPTIMIZATION

  ----------------------------------- OT ---------------------------------------
  Minimizer      : DIIS                : direct inversion
                                         in the iterative subspace
                                         using   7 DIIS vectors
                                         safer DIIS on
  Preconditioner : FULL_SINGLE_INVERSE : inversion of 
                                         H + eS - 2*(Sc)(c^T*H*c+const)(Sc)^T
  Precond_solver : DEFAULT
  stepsize       :    0.08000000                  energy_gap     :    0.08000000
  eps_taylor     :   0.10000E-15                  max_taylor     :             4
  ----------------------------------- OT ---------------------------------------

  Step     Update method      Time    Convergence         Total energy    Change
  ------------------------------------------------------------------------------
     1 OT DIIS     0.80E-01    1.0     0.00226164      -373.6497774129 -3.74E+02
     2 OT DIIS     0.80E-01    0.2     0.00316579      -373.6538316249 -4.05E-03
     3 OT DIIS     0.80E-01    0.2     0.00144864      -373.6574919665 -3.66E-03
     4 OT DIIS     0.80E-01    0.2     0.00116664      -373.6625547705 -5.06E-03
     5 OT DIIS     0.80E-01    0.3     0.00106011      -373.6654737236 -2.92E-03
     6 OT DIIS     0.80E-01    0.3     0.00041432      -373.6670863908 -1.61E-03
     7 OT DIIS     0.80E-01    0.3     0.00049330      -373.6674489709 -3.63E-04
     8 OT DIIS     0.80E-01    0.3     0.00021208      -373.6678460016 -3.97E-04
     9 OT DIIS     0.80E-01    0.3     0.00024978      -373.6679398326 -9.38E-05
    10 OT DIIS     0.80E-01    0.3     0.00013680      -373.6680025441 -6.27E-05
    11 OT DIIS     0.80E-01    0.3     0.00011182      -373.6680683597 -6.58E-05
    12 OT DIIS     0.80E-01    0.3     0.00009775      -373.6681000255 -3.17E-05
    13 OT DIIS     0.80E-01    0.3     0.00004546      -373.6681157385 -1.57E-05
    14 OT DIIS     0.80E-01    0.3     0.00004866      -373.6681173510 -1.61E-06
    15 OT DIIS     0.80E-01    0.3     0.00002625      -373.6681188216 -1.47E-06
    16 OT DIIS     0.80E-01    0.3     0.00002230      -373.6681193982 -5.77E-07
    17 OT DIIS     0.80E-01    0.3     0.00001630      -373.6681200856 -6.87E-07
    18 OT DIIS     0.80E-01    0.3     0.00001285      -373.6681202425 -1.57E-07
    19 OT DIIS     0.80E-01    0.3     0.00001009      -373.6681203878 -1.45E-07
    20 OT DIIS     0.80E-01    0.3     0.00000701      -373.6681205021 -1.14E-07

  *** SCF run converged in    20 steps ***


  Core-core repulsion energy [eV]:                        1653828.77824132703245
  Core Hamiltonian energy [eV]:                            -16514.62776000112353
  Two-electron integral energy [eV]:                     -3294964.35428653238341
  Electronic energy [eV]:                                -1663996.80490326718427

  Total energy [eV]:                                       -10168.02666194021731

  Atomic reference energy [eV]:                             10135.12221567713459
  Heat of formation [kcal/mol]:                              -758.79461705113056

 ENERGY| Total FORCE_EVAL ( QS ) energy [hartree]           -373.668120560934767

 OPT| **************************************************************************
 OPT| Step number                                                            100
 OPT| Optimization method                                                   BFGS
 OPT| Total energy [hartree]                                     -373.6681205609
 OPT| Effective energy change [hartree]                            -0.0000251709
 OPT| Predicted energy change [hartree]                            -0.0001436213
 OPT| Scaling factor                                                0.8529602957
 OPT| Step size                                                     0.0756561890
 OPT| Trust radius                                                  0.4724315332
 OPT| Decrease in energy                                                     YES
 OPT| Used time [s]                                                        7.318
 OPT|
 OPT| Maximum step size                                             0.0756561890
 OPT| Convergence limit for maximum step size                       0.0030000000
 OPT| Maximum step size is converged                                          NO
 OPT|
 OPT| RMS step size                                                 0.0178910731
 OPT| Convergence limit for RMS step size                           0.0015000000
 OPT| RMS step size is converged                                              NO
 OPT|
 OPT| Maximum gradient                                              0.0017361357
 OPT| Convergence limit for maximum gradient                        0.0004500000
 OPT| Maximum gradient is converged                                           NO
 OPT|
 OPT| RMS gradient                                                  0.0004581341
 OPT| Convergence limit for RMS gradient                            0.0003000000
 OPT| RMS gradient is converged                                               NO
 OPT| **************************************************************************

 *** MAXIMUM NUMBER OF OPTIMIZATION STEPS REACHED ***
 ***        EXITING GEOMETRY OPTIMIZATION         ***

 -------------------------------------------------------------------------------
 -                                                                             -
 -                                DBCSR STATISTICS                             -
 -                                                                             -
 -------------------------------------------------------------------------------
 COUNTER                                    TOTAL       BLAS       SMM       ACC
 flops     1 x    32 x    32            264765440     100.0%      0.0%      0.0%     
 flops    32 x    32 x   192            397148160     100.0%      0.0%      0.0%     
 flops     4 x    32 x    32            529530880     100.0%      0.0%      0.0%     
 flops     1 x     1 x   128           1380464384     100.0%      0.0%      0.0%     
 flops     1 x     4 x   128           2595363840     100.0%      0.0%      0.0%     
 flops     4 x     1 x   128           2599199744     100.0%      0.0%      0.0%     
 flops     1 x    32 x     1           2715845120     100.0%      0.0%      0.0%     
 flops     4 x     4 x   128           4752400384     100.0%      0.0%      0.0%     
 flops     4 x    32 x     1           5182007296     100.0%      0.0%      0.0%     
 flops     1 x    32 x     4           5182007296     100.0%      0.0%      0.0%     
 flops    24 x   128 x   192           6037438464     100.0%      0.0%      0.0%     
 flops    28 x   128 x   192           7043678208     100.0%      0.0%      0.0%     
 flops     4 x    32 x     4           9082437632     100.0%      0.0%      0.0%     
 flops    25 x   128 x   192           9433497600     100.0%      0.0%      0.0%     
 flops    24 x   128 x   128          19012780032     100.0%      0.0%      0.0%     
 flops    28 x   128 x   128          22181576704     100.0%      0.0%      0.0%     
 flops    25 x   128 x   128          29707468800     100.0%      0.0%      0.0%     
 flops    32 x   128 x   192          61222158336     100.0%      0.0%      0.0%     
 flops    32 x   128 x   128          97941192704     100.0%      0.0%      0.0%     
 flops inhomo. stacks                 14612627456     100.0%      0.0%      0.0%
 flops total                       301.873588E+09     100.0%      0.0%      0.0%
 flops max/rank                    301.873588E+09     100.0%      0.0%      0.0%
 matmuls inhomo. stacks                     14647     100.0%      0.0%      0.0%
 matmuls total                          103859023     100.0%      0.0%      0.0%
 number of processed stacks                483294     100.0%      0.0%      0.0%
 average stack size                                   214.9       0.0       0.0
 marketing flops                   312.121229E+09
 -------------------------------------------------------------------------------
 # multiplications                          53454
 max memory usage/rank               0.000000E+00
 # max total images/rank                        1
 # max 3D layers                                1
 # MPI messages exchanged                       0
 -------------------------------------------------------------------------------

 -------------------------------------------------------------------------------
 -                                                                             -
 -                                DBM STATISTICS                               -
 -                                                                             -
 -------------------------------------------------------------------------------
    M  x    N  x    K                                          COUNT     PERCENT
 -------------------------------------------------------------------------------

 -------------------------------------------------------------------------------
 -                                                                             -
 -                                GRID STATISTICS                              -
 -                                                                             -
 -------------------------------------------------------------------------------
 LP    KERNEL             BACKEND                              COUNT     PERCENT
 -------------------------------------------------------------------------------

 MEMORY| Estimated peak process memory [MiB]                                   0

 -------------------------------------------------------------------------------
 -                                                                             -
 -                           R E F E R E N C E S                               -
 -                                                                             -
 -------------------------------------------------------------------------------
 
 CP2K version 2025.1, the CP2K developers group (2025).
 CP2K is freely available from https://www.cp2k.org/ .
 
 T. D. Kuehne, M. Iannuzzi, M. Del Ben, V. V. Rybkin, P. Seewald, F. Stein, T. 
 Laino, R. Z. Khaliullin, O. Schuett, F. Schiffmann, D. Golze, J. Wilhelm, S. 
 Chulkov, M. H. Bani-Hashemian, V. Weber, U. Borstnik, M. Taillefumier, A. S. 
 Jakobovits, A. Lazzaro, H. Pabst, T. Mueller, R. Schade, M. Guidon, S. 
 Andermatt, N. Holmberg, G. K. Schenter, A. Hehn, A. Bussy, F. Belleflamme, G. 
 Tabacchi, A. Gloess, M. Lass, I. Bethune, C. J. Mundy, C. Plessl, M. Watkins, 
 J. VandeVondele, M. Krack, J. Hutter.
 J. Chem. Phys. 152, 194103 (2020).
 CP2K: An electronic structure and molecular dynamics software package - 
 Quickstep: Efficient and accurate electronic structure calculations.
 https://doi.org/10.1063/5.0007045

 O. Schuett, P. Messmer, J. Hutter, J. VandeVondele.
 Electronic Structure Calculations on Graphics Processing Units, 173-190 (2016).
 GPU-Accelerated Sparse Matrix-Matrix Multiplication for Linear Scaling Density 
 Functional Theory.
 https://doi.org/10.1002/9781118670712.ch8

 J. Hutter, M. Iannuzzi, F. Schiffmann, J. VandeVondele.
 WIREs Comput Mol Sci. 4, 15-25 (2014).
 CP2K: atomistic simulations of condensed matter systems.
 https://doi.org/10.1002/wcms.1159

 U. Borstnik, J. VandeVondele, V. Weber, J. Hutter.
 Parallel Comput. 40, 47-58 (2014).
 Sparse matrix multiplication: The distributed block-compressed sparse row 
 library.
 https://doi.org/10.1016/j.parco.2014.03.012

 J. J. P. Stewart.
 J. Mol. Model. 13, 1173-1213 (2007).
 Optimization of parameters for semiempirical methods V: Modification of NDDO 
 approximations and application to 70 elements.
 https://doi.org/10.1007/s00894-007-0233-4

 T. D. Khne, M. Krack, F. R. Mohamed, M. Parrinello.
 Phys. Rev. Lett. 98, 066401 (2007).
 Efficient and accurate Car-Parrinello-like approach to Born-Oppenheimer 
 molecular dynamics.
 https://doi.org/10.1103/PhysRevLett.98.066401

 M. Frigo, S. G. Johnson.
 Proc. IEEE 93, 216-231 (2005).
 The design and implementation of FFTW3.
 https://doi.org/10.1109/JPROC.2004.840301

 J. Kolafa.
 J. Comput. Chem. 25, 335-342 (2004).
 Time-reversible always stable predictor-corrector method for molecular dynamics 
 of polarizable molecules.
 https://doi.org/10.1002/jcc.10385

 J. VandeVondele, J. Hutter.
 J. Chem. Phys. 118, 4365-4369 (2003).
 An efficient orbital transformation method for electronic structure 
 calculations.
 https://doi.org/10.1063/1.1543154


 -------------------------------------------------------------------------------
 -                                                                             -
 -                                T I M I N G                                  -
 -                                                                             -
 -------------------------------------------------------------------------------
 SUBROUTINE                       CALLS  ASD         SELF TIME        TOTAL TIME
                                MAXIMUM       AVERAGE  MAXIMUM  AVERAGE  MAXIMUM
 CP2K                                 1  1.0    0.022    0.022  967.413  967.413
 cp_geo_opt                           1  2.0    0.000    0.000  967.386  967.386
 geoopt_bfgs                          1  3.0    0.036    0.036  967.385  967.385
 cp_eval_at                         101  4.0    0.007    0.007  965.575  965.575
 qs_forces                          101  5.0    0.008    0.008  965.562  965.562
 qs_energies                        101  6.0    0.003    0.003  826.621  826.621
 scf_env_do_scf                     101  7.0    0.003    0.003  817.865  817.865
 scf_env_do_scf_inner_loop         2458  8.0    0.144    0.144  718.364  718.364
 rebuild_ks_matrix                 2559  9.9    0.004    0.004  687.629  687.629
 build_se_fock_matrix              2559 10.9    1.251    1.251  687.625  687.625
 build_fock_matrix_coulomb         2559 11.9  653.898  653.898  663.409  663.409
 qs_ks_update_qs_env               2559  9.0    0.008    0.008  556.932  556.932
 qs_scf_new_mos                    2458  9.0    0.007    0.007  253.469  253.469
 qs_scf_loop_do_ot                 2458 10.0    0.010    0.010  253.461  253.461
 ot_scf_mini                       2458 11.0    0.026    0.026  243.653  243.653
 dbcsr_multiply_generic           53454 14.2    3.574    3.574  183.833  183.833
 ot_mini                           2458 12.0    0.009    0.009  182.771  182.771
 qs_ot_get_derivative              2458 13.0    0.012    0.012  137.099  137.099
 qs_ks_update_qs_env_forces         101  6.0    0.000    0.000  131.013  131.013
 init_scf_loop                      101  8.0    0.002    0.002   99.383   99.383
 dbcsr_finalize                  146625 15.5   29.883   29.883   93.401   93.401
 qs_ot_get_derivative_taylor       1926 14.0    0.049    0.049   91.897   91.897
 make_m2s                        106908 15.2    0.595    0.595   81.753   81.753
 dbcsr_add_d                      65193 14.3    0.057    0.057   77.519   77.519
 dbcsr_add_anytype                65193 15.3    5.892    5.892   77.462   77.462
 dbcsr_merge_all                 138268 16.5   54.561   54.561   59.947   59.947
 ot_diis_step                      2458 13.0    0.056    0.056   45.651   45.651
 qs_ot_get_p                       2559 11.9    0.008    0.008   44.707   44.707
 dbcsr_make_dense_low            148709 17.1    0.555    0.555   42.531   42.531
 make_dense_data                 148709 18.1   12.280   12.280   41.604   41.604
 make_images                     106908 16.2   25.670   25.670   39.479   39.479
 dbcsr_iterator_start            752771 17.4   34.478   34.478   34.786   34.786
 multiply_cannon                  53454 15.2    7.862    7.862   31.728   31.728
 dbcsr_make_images_dense         100980 16.4    0.303    0.303   29.790   29.790
 qs_ot_p2m_taylor                  2015 12.9    0.020    0.020   25.301   25.301
 dbcsr_iterator_stop             752771 17.4   19.815   19.815   19.954   19.954
 qs_ot_get_derivative_diag          532 14.0    0.008    0.008   19.689   19.689
 -------------------------------------------------------------------------------

 The number of warnings for this run is : 1
 
 -------------------------------------------------------------------------------
  **** **** ******  **  PROGRAM ENDED AT                 2026-02-04 18:41:04.195
 ***** ** ***  *** **   PROGRAM RAN ON             hyacinth-6t9hh.device.utk.edu
 **    ****   ******    PROGRAM RAN BY                           mackenziehenley
 ***** **    ** ** **   PROGRAM PROCESS ID                                 86761
  **** **  *******  **  PROGRAM STOPPED IN     /Users/mackenziehenley/cp2k/IceIh
