96
Properties=species:S:1:pos:R:3 i=100 E=-373.6681205609 pbc="F F F"
O       -0.16107810       2.61521509      -0.24881667
H        0.57117874       2.27136476      -0.82864995
H       -0.17136126       3.53937326      -0.60793092
O        2.03881696       1.10264680       2.58391578
H        2.77398987       1.59813327       3.03501742
H        1.29152684       1.66571093       2.91176415
O       -0.52892195       2.62889245       4.26519937
H        0.30773727       2.22984724       3.91497668
H       -0.44370839       3.51201327       3.80977866
O        2.13906815       1.19672442       6.12843955
H        2.79976603       1.92535096       6.20619223
H        1.35274550       1.70914318       6.45069398
O        0.11515285       2.69588429       7.63939601
H        0.62282886       3.03568095       8.41350556
H       -0.00234332       3.57320055       7.17801396
O        2.38224387       1.59359128       9.81924056
H        3.20241081       1.81465010      10.33582442
H        2.52639172       2.23423606       9.07732054
O        0.11360820       2.22736546      11.56332691
H        0.88813669       1.80800925      11.10721819
H        0.29314614       3.15576157      11.26861255
O        2.68747452       1.02192991      13.35657121
H        3.35878106       1.42001737      13.97891407
H        1.92392483       1.60662275      13.60491366
O       -2.20854659       6.40457906       0.19535213
H       -1.44624305       5.99840020      -0.28754846
H       -2.20686385       7.27670713      -0.28489208
O       -0.19396134       4.90189258       2.50245324
H        0.48723751       5.46598783       2.96234148
H       -0.97523774       5.48565544       2.68944491
O       -2.76811296       6.47051798       4.14492574
H       -1.90905245       6.26081375       3.69988088
H       -2.78864258       7.43964402       3.92190550
O        0.11400267       5.27379780       6.28882885
H        0.81974470       5.75376109       6.80494285
H       -0.66494657       5.74070780       6.68404840
O       -2.42075134       6.76943774       8.07191930
H       -1.61032175       6.50630001       7.56507925
H       -2.40993572       7.73061988       7.82743408
O        0.54671578       4.85278857      10.00512414
H        1.37263343       5.29894989      10.30267004
H       -0.06699635       5.28096123      10.65108215
O       -2.25097581       6.34869224      11.07239488
H       -1.51899192       6.05148125      10.47549672
H       -2.35183483       7.25643470      10.69918962
O        0.23727037       5.21689281      12.90315557
H        0.94278730       5.69286090      13.40617993
H       -0.51469066       5.81438672      13.15508865
O        4.67513746       2.23503240       0.38192553
H        5.47037076       1.74411454       0.04790351
H        4.82359051       3.07098689      -0.13255479
O        6.55680475       1.33084083       2.45717296
H        7.21022550       1.77005751       3.06816024
H        5.75324024       1.82406874       2.76053362
O        3.93943223       2.79487039       4.12813965
H        4.82994324       2.37595648       4.03402466
H        4.09624058       3.56560790       3.52208799
O        6.24871186       1.36374788       6.09291414
H        7.02850942       1.96750392       6.11539553
H        5.66794936       1.88717091       6.70219457
O        4.29590380       2.77309569       7.94292895
H        4.85735627       2.64175306       8.75240395
H        4.48357955       3.73621732       7.81681279
O        6.99103952       1.64902693       9.46204442
H        7.65765641       1.71541662      10.19103636
H        7.49561310       2.16900488       8.78970381
O        4.87707781       2.47225948      11.16283317
H        5.44101927       2.59737841      10.34788207
H        4.70078894       3.42976677      11.34012410
O        6.65353111       1.11326911      13.21580325
H        7.42661453       1.72760415      13.32724971
H        6.23782759       1.56998342      12.44322793
O        2.03261179       6.43254657       0.46804012
H        2.93322094       6.31196880       0.07074617
H        1.96495040       7.40803426       0.32771934
O        4.47372164       5.06344639       2.20913424
H        5.10426019       5.65589710       2.70253798
H        3.65416716       5.60464391       2.35811809
O        1.92311054       6.57820349       3.82046725
H        2.56938858       6.36158846       3.10086561
H        1.71469060       7.50094431       3.51920349
O        4.44193960       5.60502466       6.29270075
H        5.21837705       6.05162514       6.72166579
H        4.46034951       6.11317894       5.44989281
O        2.21258964       6.62302830       7.89157526
H        2.98389817       6.39036261       7.30986436
H        2.12780400       7.56754413       7.61227104
O        4.62097450       4.65232698       9.69264805
H        5.28825378       5.35830168       9.88861469
H        3.81306567       5.18513115       9.87538421
O        2.98348424       6.37827542      11.59915338
H        3.50831700       5.94389622      12.31852390
H        2.94254813       7.27884831      12.00188536
O        4.58350612       4.95137917      13.80874273
H        5.46868754       5.39137663      13.90987899
H        4.22272469       5.20651546      14.69924878
