#     Step Nr.          Time[fs]        Kin.[a.u.]          Temp[K]            Pot.[a.u.]        Cons Qty[a.u.]        UsedTime[s]
         0            0.000000         0.042419492        94.000000000      -373.204828782      -373.162409291         0.000000000
         1            0.500000         0.042380190        93.912908599      -373.667455884      -373.625289960        22.917084000
         2            1.000000         0.040158591        88.989928261      -373.665073399      -373.624775876         6.458316000
         3            1.500000         0.037442437        82.971033404      -373.662563284      -373.624786857         6.134032000
         4            2.000000         0.034750405        77.005592768      -373.659564354      -373.624398199         4.876423000
         5            2.500000         0.032328643        71.639059337      -373.657973606      -373.624981225         3.971492000
         6            3.000000         0.031152832        69.033504821      -373.656606587      -373.624893820         3.666792000
         7            3.500000         0.030886802        68.443993599      -373.656844128      -373.625296213         3.646002000
         8            4.000000         0.031062826        68.834055559      -373.657612283      -373.625197356         3.433417000
         9            4.500000         0.032518632        72.060066176      -373.658695130      -373.624712047         3.394286000
        10            5.000000         0.034815925        77.150782347      -373.660482823      -373.624684796         3.409458000
        11            5.500000         0.036094560        79.984189910      -373.662099460      -373.624728983         3.409152000
        12            6.000000         0.037138517        82.297559183      -373.662645632      -373.624337255         3.387193000
        13            6.500000         0.037306495        82.669792083      -373.662853734      -373.624468420         3.395496000
        14            7.000000         0.036664795        81.247808810      -373.661775509      -373.624198799         3.150154000
        15            7.500000         0.035415535        78.479496145      -373.660265580      -373.624167918         3.210798000
        16            8.000000         0.033946055        75.223183316      -373.658151158      -373.623817254         3.288976000
        17            8.500000         0.033053257        73.244776430      -373.656244489      -373.623529229         3.190246000
        18            9.000000         0.031846308        70.570222850      -373.655030375      -373.623374551         3.169302000
        19            9.500000         0.032132934        71.205375318      -373.654708534      -373.623340105         3.140213000
        20           10.000000         0.033042990        73.222024821      -373.655237218      -373.623415170         3.164444000
        21           10.500000         0.034099910        75.564119825      -373.656140344      -373.623389584         3.426870000
        22           11.000000         0.034864684        77.258830651      -373.657240384      -373.623501639         3.191656000
        23           11.500000         0.035056083        77.682962770      -373.658048620      -373.623686910         3.459331000
        24           12.000000         0.034860551        77.249671054      -373.658138172      -373.623846841         3.474006000
        25           12.500000         0.033716873        74.715323433      -373.657270573      -373.623890627         3.405450000
        26           13.000000         0.031610961        70.048702907      -373.655593291      -373.623863371         3.444890000
        27           13.500000         0.029608918        65.612249343      -373.653774867      -373.624140544         3.186716000
        28           14.000000         0.027243117        60.369723453      -373.651334886      -373.623792689         3.173666000
        29           14.500000         0.025347849        56.169881952      -373.649631570      -373.623706393         3.162034000
        30           15.000000         0.024493640        54.276986785      -373.649164328      -373.624043530         7.101292000
        31           15.500000         0.024945299        55.277846323      -373.649778259      -373.624478455         3.226596000
        32           16.000000         0.025756757        57.076006083      -373.650848325      -373.624444643         3.183920000
        33           16.500000         0.027117458        60.091268398      -373.652733836      -373.624592444         3.162112000
        34           17.000000         0.028640464        63.466192589      -373.654628838      -373.624584321         3.129300000
        35           17.500000         0.030213584        66.952166793      -373.655671752      -373.624050795         3.156781000
        36           18.000000         0.030810611        68.275157213      -373.655875350      -373.623431161         3.139574000
        37           18.500000         0.030043106        66.574395236      -373.655576332      -373.623300921         3.153277000
        38           19.000000         0.028687344        63.570077847      -373.654460796      -373.623356688         3.173120000
        39           19.500000         0.027080023        60.008314826      -373.652493523      -373.623366668         3.148008000
        40           20.000000         0.024498171        54.287026053      -373.649480527      -373.622754532         3.110613000
        41           20.500000         0.022378343        49.589568420      -373.647385278      -373.622999175         3.129674000
        42           21.000000         0.020728361        45.933270313      -373.645683448      -373.623140821         3.124422000
        43           21.500000         0.019732469        43.726409885      -373.644797054      -373.623264532         3.149077000
        44           22.000000         0.019747195        43.759041482      -373.644667638      -373.623190391         3.160747000
        45           22.500000         0.020206438        44.776708346      -373.645523273      -373.623248536         3.141212000
        46           23.000000         0.022114834        49.005640960      -373.647458477      -373.623822605         3.154462000
        47           23.500000         0.023330968        51.700549810      -373.649146503      -373.623983517         3.156406000
        48           24.000000         0.024757766        54.862280321      -373.650439985      -373.623996684         3.175801000
        49           24.500000         0.025823661        57.224263351      -373.651111623      -373.623945921         3.148173000
        50           25.000000         0.025925031        57.448893919      -373.651120751      -373.623946731         3.159797000
        51           25.500000         0.025192800        55.826298026      -373.650634506      -373.624110979         3.137406000
        52           26.000000         0.024164234        53.547035892      -373.649879358      -373.624428629         3.203585000
        53           26.500000         0.023009453        50.988083745      -373.648433868      -373.624176892         3.135233000
        54           27.000000         0.022198669        49.191416746      -373.647146743      -373.623885164         3.128008000
        55           27.500000         0.021379843        47.376929596      -373.646967090      -373.624255313         3.145965000
        56           28.000000         0.021354785        47.321400441      -373.646841885      -373.624133011         3.183084000
        57           28.500000         0.021931245        48.598815344      -373.647384219      -373.624199244         3.134570000
        58           29.000000         0.022937302        50.828200295      -373.648639625      -373.624714018         3.290779000
        59           29.500000         0.023910365        52.984471018      -373.649949635      -373.625311573         3.352474000
        60           30.000000         0.024223069        53.677412200      -373.650298812      -373.625269507         3.179996000
        61           30.500000         0.024321605        53.895763424      -373.650199873      -373.625297537         3.214877000
        62           31.000000         0.023623100        52.347901460      -373.649273493      -373.625055389         3.310391000
        63           31.500000         0.022927622        50.806749711      -373.648193105      -373.625093979         3.191782000
        64           32.000000         0.021825741        48.365022097      -373.646958642      -373.625150404         4.138040000
        65           32.500000         0.020929046        46.377979378      -373.646100636      -373.625418332         3.841723000
        66           33.000000         0.020318353        45.024706320      -373.645116597      -373.625065267         3.482087000
        67           33.500000         0.020494634        45.415338268      -373.645249262      -373.625096514         3.540157000
        68           34.000000         0.021811008        48.332374138      -373.646065042      -373.625024805         3.442673000
        69           34.500000         0.023406494        51.867912143      -373.647859240      -373.625305725         3.178791000
        70           35.000000         0.025458399        56.414855427      -373.649303235      -373.624945345         3.203470000
        71           35.500000         0.027014439        59.862982815      -373.651061223      -373.625002591         3.502234000
        72           36.000000         0.028322629        62.761882320      -373.652622776      -373.625349827         3.256365000
        73           36.500000         0.029217073        64.743936702      -373.652969697      -373.625230693         3.417170000
        74           37.000000         0.028625950        63.434029961      -373.652464162      -373.625122464         3.139641000
        75           37.500000         0.027299657        60.495013909      -373.651531241      -373.625361203         3.239247000
        76           38.000000         0.025838836        57.257890175      -373.649882460      -373.625409790         3.530057000
        77           38.500000         0.024053981        53.302718065      -373.647640538      -373.625002200         3.452572000
        78           39.000000         0.022850574        50.636014654      -373.646191745      -373.625140077         3.431067000
        79           39.500000         0.021895159        48.518849639      -373.645368189      -373.625347282         3.156361000
        80           40.000000         0.021708930        48.106173940      -373.644833971      -373.625108903         3.131475000
        81           40.500000         0.022341631        49.508214576      -373.645457981      -373.625277177         3.129641000
        82           41.000000         0.023233133        51.483751162      -373.646422577      -373.625180817         3.220662000
        83           41.500000         0.024511465        54.316485713      -373.647944643      -373.625311765         3.168133000
        84           42.000000         0.025782810        57.133739548      -373.649848166      -373.625810948         3.147740000
        85           42.500000         0.027281984        60.455852537      -373.651068918      -373.625877012         3.175825000
        86           43.000000         0.027986117        62.016183362      -373.651800238      -373.625909300         3.207828000
        87           43.500000         0.028258247        62.619214388      -373.651742578      -373.625671463         3.197829000
        88           44.000000         0.027770754        61.538946975      -373.651785169      -373.625989678         3.136378000
        89           44.500000         0.027522539        60.988913689      -373.650968226      -373.625740425         3.213082000
        90           45.000000         0.027569080        61.092046865      -373.649917805      -373.625358566         3.140973000
        91           45.500000         0.027809805        61.625483086      -373.649195875      -373.625218630         3.150482000
        92           46.000000         0.027990313        62.025481992      -373.648574115      -373.624959148         3.161777000
        93           46.500000         0.027548609        61.046683849      -373.648400566      -373.624882442         3.150118000
        94           47.000000         0.027846794        61.707449644      -373.648516405      -373.624888880         3.131351000
        95           47.500000         0.028894107        64.028255396      -373.648619257      -373.624818171         3.167059000
        96           48.000000         0.029060008        64.395885319      -373.648235485      -373.624378566         3.195531000
        97           48.500000         0.028688969        63.573678691      -373.648570333      -373.624901150         3.155408000
        98           49.000000         0.027827917        61.665618286      -373.648070053      -373.624845052         3.169333000
        99           49.500000         0.027223916        60.327174452      -373.647353218      -373.624771062         3.164566000
       100           50.000000         0.026506044        58.736398870      -373.646154927      -373.624281630         3.232395000
       101           50.500000         0.025910861        57.417494258      -373.645327272      -373.624045490         3.198002000
       102           51.000000         0.026210625        58.081761488      -373.644696278      -373.623723714         3.611336000
       103           51.500000         0.026994899        59.819683261      -373.644573242      -373.623533426         3.215972000
       104           52.000000         0.028024780        62.101859778      -373.645095178      -373.623596642         3.175066000
       105           52.500000         0.029070185        64.418439086      -373.646092748      -373.623813384         3.221980000
       106           53.000000         0.030173241        66.862769847      -373.647233255      -373.624004412         3.204026000
       107           53.500000         0.031048705        68.802763748      -373.648292957      -373.624152008         3.154667000
       108           54.000000         0.031565343        69.947614446      -373.648485289      -373.623689980         3.253405000
       109           54.500000         0.031699713        70.245373799      -373.648794730      -373.623753301         3.190634000
       110           55.000000         0.031328070        69.421826351      -373.648884795      -373.624078805         3.202298000
       111           55.500000         0.030555203        67.709182391      -373.648481542      -373.624357804         3.173326000
       112           56.000000         0.029718938        65.856051147      -373.647718939      -373.624605596         3.296260000
       113           56.500000         0.028701057        63.600464069      -373.646825565      -373.624898424         3.174148000
       114           57.000000         0.027481359        60.897659318      -373.645774334      -373.625011561         3.197211000
       115           57.500000         0.026776468        59.335647357      -373.644609600      -373.624796554         3.153550000
       116           58.000000         0.026369863        58.434625393      -373.643751594      -373.624566857         3.155564000
       117           58.500000         0.026506041        58.736391090      -373.643327625      -373.624418650         3.184704000
       118           59.000000         0.026686193        59.135601332      -373.643384373      -373.624425788         3.246556000
       119           59.500000         0.027250997        60.387185360      -373.643853565      -373.624587429         3.148820000
       120           60.000000         0.027565413        61.083919636      -373.644255200      -373.624516148         3.179499000
       121           60.500000         0.027756222        61.506746440      -373.644949968      -373.624666945         3.174163000
       122           61.000000         0.028880705        63.998557310      -373.645736664      -373.624914664         3.184018000
       123           61.500000         0.029393217        65.134265944      -373.646241469      -373.624961355         3.130198000
       124           62.000000         0.029882575        66.218663704      -373.646704108      -373.625094208         3.200646000
       125           62.500000         0.029828037        66.097808598      -373.646726477      -373.624923724         3.192747000
       126           63.000000         0.030648517        67.915962188      -373.646619512      -373.624764449         3.185804000
       127           63.500000         0.030733861        68.105081459      -373.646338319      -373.624572107         3.158469000
       128           64.000000         0.030693023        68.014586401      -373.645945316      -373.624406367         3.168635000
       129           64.500000         0.030641833        67.901151992      -373.645693894      -373.624525366         3.159346000
       130           65.000000         0.030368030        67.294413004      -373.645510896      -373.624877917         3.189862000
       131           65.500000         0.030129556        66.765963841      -373.645062390      -373.625128994         3.276346000
       132           66.000000         0.029773542        65.977049927      -373.644289481      -373.625191172         3.207783000
       133           66.500000         0.029123665        64.536948362      -373.643736904      -373.625554278         3.234911000
       134           67.000000         0.028612832        63.404960725      -373.642879834      -373.625586268         3.219999000
       135           67.500000         0.028380206        62.889470361      -373.642045067      -373.625471973         3.243986000
       136           68.000000         0.027899296        61.823792023      -373.641532066      -373.625365806         3.182645000
       137           68.500000         0.028103355        62.275978791      -373.641534961      -373.625355932         3.211935000
       138           69.000000         0.028807320        63.835940132      -373.642409644      -373.625768636         3.171457000
       139           69.500000         0.029566361        65.517944713      -373.643107858      -373.625619573         3.120417000
       140           70.000000         0.030766266        68.176890664      -373.644051400      -373.625477825         3.163511000
       141           70.500000         0.032361937        71.712837163      -373.645276691      -373.625574112         3.128150000
       142           71.000000         0.033517674        74.273906139      -373.645869020      -373.625216543         3.206931000
       143           71.500000         0.033992727        75.326605737      -373.646878804      -373.625621675         3.438501000
       144           72.000000         0.034135040        75.641967294      -373.646894906      -373.625474311         3.415770000
       145           72.500000         0.034303371        76.014982800      -373.646838846      -373.625714813         3.423653000
       146           73.000000         0.034244147        75.883743578      -373.646152428      -373.625718694         3.435279000
       147           73.500000         0.032859956        72.816428027      -373.645500110      -373.626002757         3.400182000
       148           74.000000         0.031410132        69.603672690      -373.644508477      -373.626001630         3.369040000
       149           74.500000         0.030772129        68.189881813      -373.643238371      -373.625593715         3.412172000
       150           75.000000         0.030020427        66.524137811      -373.642408250      -373.625391076         3.410464000
       151           75.500000         0.029808151        66.053742553      -373.641853384      -373.625187241         3.406476000
       152           76.000000         0.030061136        66.614348824      -373.641882317      -373.625324984         3.160929000
       153           76.500000         0.030300365        67.144471745      -373.641715710      -373.625109296         3.149845000
       154           77.000000         0.030611018        67.832866512      -373.641614277      -373.624892235         3.166856000
       155           77.500000         0.031054715        68.816081942      -373.641291265      -373.624453001         3.146133000
       156           78.000000         0.031164913        69.060275723      -373.641524044      -373.624599192         3.151829000
       157           78.500000         0.031796959        70.460867877      -373.641089825      -373.624096488         3.131232000
       158           79.000000         0.031724806        70.300979211      -373.641326566      -373.624241233         3.402231000
       159           79.500000         0.031338644        69.445257111      -373.641438443      -373.624163585         3.398981000
       160           80.000000         0.032095847        71.123190573      -373.641670456      -373.624031535         3.125592000
       161           80.500000         0.033454028        74.132868805      -373.642294507      -373.624112209         3.156088000
       162           81.000000         0.033885990        75.090081218      -373.643340923      -373.624507881         3.172775000
       163           81.500000         0.034236037        75.865771511      -373.643843880      -373.624350512         3.440979000
       164           82.000000         0.035201959        78.006219158      -373.643911986      -373.623885566         3.467075000
       165           82.500000         0.035521621        78.714578156      -373.643983297      -373.623741879         3.417756000
       166           83.000000         0.035136079        77.860231439      -373.643274145      -373.623306410         3.168928000
       167           83.500000         0.034654229        76.792470946      -373.642191017      -373.623043369         3.188467000
       168           84.000000         0.033218397        73.610719962      -373.640621703      -373.622745824         3.210236000
       169           84.500000         0.031774074        70.410155372      -373.638993772      -373.622629369         3.181274000
       170           85.000000         0.030006119        66.492433782      -373.637431798      -373.622564254         3.447212000
       171           85.500000         0.029037854        64.346793279      -373.636198604      -373.622526289         3.391034000
       172           86.000000         0.028475703        63.101088099      -373.635158699      -373.622125597         3.380329000
       173           86.500000         0.028568560        63.306855291      -373.635166740      -373.622081395         3.428516000
       174           87.000000         0.029511310        65.395955583      -373.635702953      -373.621878362         3.417427000
       175           87.500000         0.031471581        69.739842574      -373.636882428      -373.621774143         3.192518000
       176           88.000000         0.032140825        71.222860582      -373.638157161      -373.621513444         3.130758000
       177           88.500000         0.034178587        75.738465001      -373.640259650      -373.622125933         3.187038000
       178           89.000000         0.035525494        78.723159746      -373.641749402      -373.622471583         3.150522000
       179           89.500000         0.035842649        79.425963677      -373.642403941      -373.622572259         3.121246000
       180           90.000000         0.035865852        79.477381900      -373.641942646      -373.622258482         3.202087000
       181           90.500000         0.034933632        77.411616893      -373.641183515      -373.622293314         3.201031000
       182           91.000000         0.033760344        74.811654516      -373.639636017      -373.621984283         3.318378000
       183           91.500000         0.032436561        71.878202005      -373.638153590      -373.621908914         3.189859000
       184           92.000000         0.031161045        69.051706011      -373.636552482      -373.621573840         3.189768000
       185           92.500000         0.030222796        66.972580326      -373.635641748      -373.621545299         3.167741000
       186           93.000000         0.030295186        67.132993630      -373.635326566      -373.621612460         3.157323000
       187           93.500000         0.030521853        67.635278937      -373.635571912      -373.621772099         3.190171000
       188           94.000000         0.031454017        69.700921188      -373.635993224      -373.621799469         3.195605000
       189           94.500000         0.032064632        71.054019150      -373.636125986      -373.621456456         3.162658000
       190           95.000000         0.032691004        72.442036101      -373.636507644      -373.621490479         3.193094000
       191           95.500000         0.032959271        73.036506713      -373.636843341      -373.621756252         3.169233000
       192           96.000000         0.032715893        72.497189657      -373.636513004      -373.621678036         3.202160000
       193           96.500000         0.032287110        71.547023833      -373.635562836      -373.621220152         3.212742000
       194           97.000000         0.031093005        68.900930446      -373.634619389      -373.620818031         3.156241000
       195           97.500000         0.030742893        68.125095149      -373.634683233      -373.621244166         3.177936000
       196           98.000000         0.030739949        68.118573500      -373.634802471      -373.621371191         2.904677000
       197           98.500000         0.031242220        69.231585497      -373.635421611      -373.621561890         3.181820000
       198           99.000000         0.032076376        71.080045034      -373.636521002      -373.621826349         2.869210000
       199           99.500000         0.033116788        73.385557731      -373.637647182      -373.621865068         3.185588000
       200          100.000000         0.034172981        75.726042580      -373.638465445      -373.621603890         3.180184000
       201          100.500000         0.034106174        75.577999687      -373.638965367      -373.621341539         3.152153000
       202          101.000000         0.034064551        75.485766473      -373.639216728      -373.621403695         3.180977000
       203          101.500000         0.033401040        74.015450251      -373.638682634      -373.621400827         3.168987000
       204          102.000000         0.032421875        71.845656534      -373.637830328      -373.621770460         3.187366000
       205          102.500000         0.030277409        67.093602120      -373.635776951      -373.621449242         3.163813000
       206          103.000000         0.028707387        63.614492326      -373.633540256      -373.621162039         3.148478000
       207          103.500000         0.026881099        59.567504997      -373.632050096      -373.621447233         3.166279000
       208          104.000000         0.026102419        57.841979167      -373.630643123      -373.621258449         3.203758000
       209          104.500000         0.025725729        57.007249412      -373.630216599      -373.621210023         3.148446000
       210          105.000000         0.026548316        58.830070600      -373.630660507      -373.621084366         3.188457000
       211          105.500000         0.028119668        62.312128313      -373.631706308      -373.620711333         3.209839000
       212          106.000000         0.030272564        67.082864281      -373.633696335      -373.620725827         3.706980000
       213          106.500000         0.032140247        71.221580142      -373.636165393      -373.621084256         3.182202000
       214          107.000000         0.034025001        75.398125100      -373.638073979      -373.621213399         3.198824000
       215          107.500000         0.034780526        77.072338258      -373.638703227      -373.620774870         3.175956000
       216          108.000000         0.034954931        77.458813470      -373.638958863      -373.620902096         3.163129000
       217          108.500000         0.034039587        75.430447183      -373.637696246      -373.620449071         3.108117000
       218          109.000000         0.032670544        72.396698424      -373.636432346      -373.620729616         3.153088000
       219          109.500000         0.030825898        68.309031694      -373.634460966      -373.620653343         3.164582000
       220          110.000000         0.029106033        64.497876929      -373.632820294      -373.620854062         3.217622000
       221          110.500000         0.026896147        59.600850613      -373.631556849      -373.620994617         3.157250000
       222          111.000000         0.026754949        59.287961334      -373.631091952      -373.621244266         3.145785000
       223          111.500000         0.027042862        59.925967268      -373.631033520      -373.621180749         3.165327000
       224          112.000000         0.027870548        61.760087748      -373.631449433      -373.621015921         3.212540000
       225          112.500000         0.028789144        63.795661402      -373.632246534      -373.620920633         3.152015000
       226          113.000000         0.029770703        65.970760309      -373.633140082      -373.620927997         3.175075000
       227          113.500000         0.030604155        67.817658014      -373.633585117      -373.620784940         3.149445000