      96
 i =        0, time =        0.000, E =      -373.2048287821
  O        -0.1610781000        2.6152150900       -0.2488166700
  H         0.5711787400        2.2713647600       -0.8286499500
  H        -0.1713612600        3.5393732600       -0.6079309200
  O         2.0388169600        1.1026468000        2.5839157800
  H         2.7739898700        1.5981332700        3.0350174200
  H         1.2915268400        1.6657109300        2.9117641500
  O        -0.5289219500        2.6288924500        4.2651993700
  H         0.3077372700        2.2298472400        3.9149766800
  H        -0.4437083900        3.5120132700        3.8097786600
  O         2.1390681500        1.1967244200        6.1284395500
  H         2.7997660300        1.9253509600        6.2061922300
  H         1.3527455000        1.7091431800        6.4506939800
  O         0.1151528500        2.6958842900        7.6393960100
  H         0.6228288600        3.0356809500        8.4135055600
  H        -0.0023433200        3.5732005500        7.1780139600
  O         2.3822438700        1.5935912800        9.8192405600
  H         3.2024108100        1.8146501000       10.3358244200
  H         2.5263917200        2.2342360600        9.0773205400
  O         0.1136082000        2.2273654600       11.5633269100
  H         0.8881366900        1.8080092500       11.1072181900
  H         0.2931461400        3.1557615700       11.2686125500
  O         2.6874745200        1.0219299100       13.3565712100
  H         3.3587810600        1.4200173700       13.9789140700
  H         1.9239248300        1.6066227500       13.6049136600
  O        -2.2085465900        6.4045790600        0.1953521300
  H        -1.4462430500        5.9984002000       -0.2875484600
  H        -2.2068638500        7.2767071300       -0.2848920800
  O        -0.1939613400        4.9018925800        2.5024532400
  H         0.4872375100        5.4659878300        2.9623414800
  H        -0.9752377400        5.4856554400        2.6894449100
  O        -2.7681129600        6.4705179800        4.1449257400
  H        -1.9090524500        6.2608137500        3.6998808800
  H        -2.7886425800        7.4396440200        3.9219055000
  O         0.1140026700        5.2737978000        6.2888288500
  H         0.8197447000        5.7537610900        6.8049428500
  H        -0.6649465700        5.7407078000        6.6840484000
  O        -2.4207513400        6.7694377400        8.0719193000
  H        -1.6103217500        6.5063000100        7.5650792500
  H        -2.4099357200        7.7306198800        7.8274340800
  O         0.5467157800        4.8527885700       10.0051241400
  H         1.3726334300        5.2989498900       10.3026700400
  H        -0.0669963500        5.2809612300       10.6510821500
  O        -2.2509758100        6.3486922400       11.0723948800
  H        -1.5189919200        6.0514812500       10.4754967200
  H        -2.3518348300        7.2564347000       10.6991896200
  O         0.2372703700        5.2168928100       12.9031555700
  H         0.9427873000        5.6928609000       13.4061799300
  H        -0.5146906600        5.8143867200       13.1550886500
  O         4.6751374600        2.2350324000        0.3819255300
  H         5.4703707600        1.7441145400        0.0479035100
  H         4.8235905100        3.0709868900       -0.1325547900
  O         6.5568047500        1.3308408300        2.4571729600
  H         7.2102255000        1.7700575100        3.0681602400
  H         5.7532402400        1.8240687400        2.7605336200
  O         3.9394322300        2.7948703900        4.1281396500
  H         4.8299432400        2.3759564800        4.0340246600
  H         4.0962405800        3.5656079000        3.5220879900
  O         6.2487118600        1.3637478800        6.0929141400
  H         7.0285094200        1.9675039200        6.1153955300
  H         5.6679493600        1.8871709100        6.7021945700
  O         4.2959038000        2.7730956900        7.9429289500
  H         4.8573562700        2.6417530600        8.7524039500
  H         4.4835795500        3.7362173200        7.8168127900
  O         6.9910395200        1.6490269300        9.4620444200
  H         7.6576564100        1.7154166200       10.1910363600
  H         7.4956131000        2.1690048800        8.7897038100
  O         4.8770778100        2.4722594800       11.1628331700
  H         5.4410192700        2.5973784100       10.3478820700
  H         4.7007889400        3.4297667700       11.3401241000
  O         6.6535311100        1.1132691100       13.2158032500
  H         7.4266145300        1.7276041500       13.3272497100
  H         6.2378275900        1.5699834200       12.4432279300
  O         2.0326117900        6.4325465700        0.4680401200
  H         2.9332209400        6.3119688000        0.0707461700
  H         1.9649504000        7.4080342600        0.3277193400
  O         4.4737216400        5.0634463900        2.2091342400
  H         5.1042601900        5.6558971000        2.7025379800
  H         3.6541671600        5.6046439100        2.3581180900
  O         1.9231105400        6.5782034900        3.8204672500
  H         2.5693885800        6.3615884600        3.1008656100
  H         1.7146906000        7.5009443100        3.5192034900
  O         4.4419396000        5.6050246600        6.2927007500
  H         5.2183770500        6.0516251400        6.7216657900
  H         4.4603495100        6.1131789400        5.4498928100
  O         2.2125896400        6.6230283000        7.8915752600
  H         2.9838981700        6.3903626100        7.3098643600
  H         2.1278040000        7.5675441300        7.6122710400
  O         4.6209745000        4.6523269800        9.6926480500
  H         5.2882537800        5.3583016800        9.8886146900
  H         3.8130656700        5.1851311500        9.8753842100
  O         2.9834842400        6.3782754200       11.5991533800
  H         3.5083170000        5.9438962200       12.3185239000
  H         2.9425481300        7.2788483100       12.0018853600
  O         4.5835061200        4.9513791700       13.8087427300
  H         5.4686875400        5.3913766300       13.9098789900
  H         4.2227246900        5.2065154600       14.6992487800
      96
 i =        2, time =        1.000, E =      -373.6650733990
  O        -0.1573832716        2.6132293284       -0.2492409447
  H         0.5763629581        2.2677482278       -0.8323879646
  H        -0.1743544360        3.5338198042       -0.6162234442
  O         2.0436462812        1.0995503166        2.5856168199
  H         2.7915615264        1.5915146687        3.0395495149
  H         1.2956838462        1.6591850047        2.9267321330
  O        -0.5287113387        2.6276401816        4.2676515872
  H         0.2949131214        2.2170765948        3.9060256521
  H        -0.4550252912        3.5208731699        3.8004128627
  O         2.1387501539        1.2015033097        6.1271164808
  H         2.7972528291        1.9408396270        6.2015255621
  H         1.3592403727        1.7067047935        6.4632617448
  O         0.1154078290        2.6968299379        7.6368895487
  H         0.6170068029        3.0340630978        8.4223981564
  H        -0.0048159379        3.5909128912        7.1791596360
  O         2.3869197596        1.5950247832        9.8201524945
  H         3.2018526822        1.8023554044       10.3470752266
  H         2.5231402393        2.2394485564        9.0812130384
  O         0.1150371146        2.2275927325       11.5630697776
  H         0.8834235985        1.8163134331       11.1124718819
  H         0.2987746810        3.1555075151       11.2880395839
  O         2.6849899061        1.0220958226       13.3558153704
  H         3.3734005812        1.4218192437       13.9746848855
  H         1.8989065128        1.6044723880       13.6068657645
  O        -2.2108611043        6.4065473996        0.1941562228
  H        -1.4320119062        6.0075603999       -0.2754750017
  H        -2.2016575943        7.2642897363       -0.2801417172
  O        -0.1930522436        4.9021946879        2.5027589308
  H         0.4727990863        5.4646985606        2.9685411552
  H        -0.9863660892        5.4862146113        2.6862494268
  O        -2.7681567182        6.4736374989        4.1473285819
  H        -1.9150118884        6.2663381382        3.7085912888
  H        -2.7697978789        7.4503183893        3.9329757631
  O         0.1149604599        5.2717856571        6.2874085406
  H         0.8369040825        5.7610316309        6.7987404976
  H        -0.6759144053        5.7311428072        6.6859619418
  O        -2.4246311238        6.7714356590        8.0710122798
  H        -1.6136241779        6.5225605774        7.5706435328
  H        -2.4089305273        7.7298498314        7.8281199804
  O         0.5434240681        4.8528908031       10.0054506727
  H         1.3758411028        5.2993188720       10.2897637664
  H        -0.0723913238        5.2712007443       10.6482470630
  O        -2.2520911061        6.3477692138       11.0716954480
  H        -1.5164262293        6.0457218204       10.4747909474
  H        -2.3667190408        7.2419328621       10.6985806776
  O         0.2367637118        5.2158533408       12.9010896349
  H         0.9489118202        5.6955336604       13.3884714528
  H        -0.5098925045        5.8278905801       13.1551109608
  O         4.6717448130        2.2346082140        0.3812629825
  H         5.4764627435        1.7392706922        0.0507213763
  H         4.8289318443        3.0708334756       -0.1327573588
  O         6.5595583832        1.3287007093        2.4599891994
  H         7.2153425541        1.7891564875        3.0780053807
  H         5.7543750589        1.8250268885        2.7629526870
  O         3.9359846035        2.7943753213        4.1244532364
  H         4.8228047823        2.3671640680        4.0322277283
  H         4.1079835525        3.5641345384        3.5170164913
  O         6.2530802995        1.3625827165        6.0963933769
  H         7.0318283062        1.9687386858        6.1255227630
  H         5.6683563526        1.8848327559        6.6982818260
  O         4.2949717183        2.7747951904        7.9455491058
  H         4.8620184308        2.6322398795        8.7544021077
  H         4.4814653633        3.7382231486        7.8139910660
  O         6.9934293652        1.6473173948        9.4640743203
  H         7.6496667773        1.7239157243       10.1792735007
  H         7.4976063686        2.1615205629        8.8008867140
  O         4.8755734030        2.4741272006       11.1658986456
  H         5.4519187422        2.6040900035       10.3624801351
  H         4.7052428506        3.4323406053       11.3422085557
  O         6.6560015754        1.1140110181       13.2105789964
  H         7.4328723394        1.7366481089       13.3484195765
  H         6.2371068435        1.5626023637       12.4392144412
  O         2.0341670816        6.4286268877        0.4697299034
  H         2.9276487700        6.3252089669        0.0640136996
  H         1.9570300428        7.4026681227        0.3234122246
  O         4.4720045333        5.0593580070        2.2084740723
  H         5.0956722708        5.6425238474        2.7193117707
  H         3.6492698754        5.6054260599        2.3451940314
  O         1.9240465086        6.5775931916        3.8179197718
  H         2.5716189777        6.3806552320        3.0960068202
  H         1.7103895889        7.5091477568        3.5372566310
  O         4.4375800885        5.6061109050        6.2906046224
  H         5.2173780711        6.0357396964        6.7219257375
  H         4.4553273004        6.1237616744        5.4573069216
  O         2.2102853971        6.6222626195        7.8904963427
  H         2.9813287024        6.3948164792        7.3188368171
  H         2.1270127332        7.5820338664        7.6115287038
  O         4.6230297468        4.6506476170        9.6941714459
  H         5.3035192384        5.3682969399        9.8793361759
  H         3.8108969618        5.1907827512        9.8734790700
  O         2.9821547836        6.3783325718       11.5968356202
  H         3.5123797727        5.9452286313       12.3197521013
  H         2.9387596664        7.2797377437       11.9847825599
  O         4.5828652107        4.9529192206       13.8067471641
  H         5.4597085747        5.3945830160       13.9220456726
  H         4.2255258346        5.2093252079       14.6972834290
      96
 i =        4, time =        2.000, E =      -373.6595643543
  O        -0.1536582812        2.6112447348       -0.2496914988
  H         0.5805228299        2.2644441931       -0.8357463766
  H        -0.1773340980        3.5282456081       -0.6245385481
  O         2.0485195238        1.0965121994        2.5873677316
  H         2.8069067803        1.5843391369        3.0432689557
  H         1.3011264376        1.6525978671        2.9414320630
  O        -0.5285927589        2.6265501110        4.2700540453
  H         0.2825795190        2.2052502831        3.8967330656
  H        -0.4656165421        3.5263406702        3.7923132219
  O         2.1385517849        1.2063037747        6.1257891339
  H         2.7941330908        1.9548164684        6.1967081579
  H         1.3645545588        1.7047595347        6.4761402857
  O         0.1156297088        2.6979580627        7.6343792561
  H         0.6109176089        3.0322991755        8.4304323747
  H        -0.0066933249        3.6059159899        7.1815913257
  O         2.3914888029        1.5963676537        9.8210555631
  H         3.2012071946        1.7911183085       10.3571764817
  H         2.5209859644        2.2445673261        9.0862230523
  O         0.1163397101        2.2278112721       11.5629105155
  H         0.8806097721        1.8232398097       11.1165945402
  H         0.3043994154        3.1567876059       11.3070942875
  O         2.6824191340        1.0223596555       13.3551289684
  H         3.3845627027        1.4239200549       13.9693225052
  H         1.8790116149        1.6004200627       13.6088237535
  O        -2.2130979049        6.4082911890        0.1930349051
  H        -1.4181417184        6.0163446214       -0.2629132766
  H        -2.1970560860        7.2558100251       -0.2769415653
  O        -0.1923507319        4.9025613911        2.5030616551
  H         0.4599281583        5.4642153526        2.9754135056
  H        -0.9957275129        5.4852166704        2.6825590308
  O        -2.7682892419        6.4768774028        4.1497181071
  H        -1.9189030300        6.2704954346        3.7164100643
  H        -2.7515594114        7.4599164076        3.9442876923
  O         0.1159820148        5.2698610803        6.2860641072
  H         0.8504270098        5.7671386058        6.7915168550
  H        -0.6842867458        5.7215942715        6.6879012320
  O        -2.4285286217        6.7734512514        8.0701382886
  H        -1.6154117860        6.5371869290        7.5754828432
  H        -2.4087894610        7.7301897077        7.8291314770
  O         0.5402152871        4.8528730959       10.0056257828
  H         1.3780082332        5.3001507940       10.2778548717
  H        -0.0777836928        5.2629772182       10.6470575240
  O        -2.2531756968        6.3466603306       11.0710641798
  H        -1.5145918613        6.0408784570       10.4744198085
  H        -2.3813146782        7.2295956020       10.6964154341
  O         0.2361462689        5.2148938283       12.8990577943
  H         0.9559193064        5.6982280457       13.3710236060
  H        -0.5042627509        5.8400495284       13.1546238670
  O         4.6684692854        2.2341328762        0.3805569113
  H         5.4810072044        1.7354061240        0.0541112336
  H         4.8341470976        3.0704916495       -0.1327802326
  O         6.5623999429        1.3267091448        2.4629731231
  H         7.2185090802        1.8063728113        3.0855568015
  H         5.7558783254        1.8255343736        2.7648163883
  O         3.9325456087        2.7939170824        4.1207661189
  H         4.8160806015        2.3581230047        4.0303980281
  H         4.1194632879        3.5623601436        3.5122809098
  O         6.2574740500        1.3614051366        6.0998239802
  H         7.0350342470        1.9696809342        6.1355043236
  H         5.6679237318        1.8830327893        6.6948850527
  O         4.2940811944        2.7764484210        7.9481740096
  H         4.8662675595        2.6239781104        8.7553120949
  H         4.4795971189        3.7398975837        7.8119754872
  O         6.9956119933        1.6455550545        9.4660248135
  H         7.6440654185        1.7318597201       10.1719436065
  H         7.5002475384        2.1556138842        8.8086563062
  O         4.8741074193        2.4759989805       11.1689522026
  H         5.4628823207        2.6102312195       10.3765403884
  H         4.7093227394        3.4352021147       11.3448502485
  O         6.6585813322        1.1147083351       13.2055230753
  H         7.4362613310        1.7445003147       13.3677119782
  H         6.2373228127        1.5568328937       12.4350602568
  O         2.0356747493        6.4247837482        0.4714142214
  H         2.9233531284        6.3374054231        0.0568600138
  H         1.9486247109        7.3974146282        0.3194487828
  O         4.4702498883        5.0553201126        2.2078151975
  H         5.0869021603        5.6292651918        2.7360131930
  H         3.6453674679        5.6058512679        2.3324876020
  O         1.9249399731        6.5770115078        3.8154232933
  H         2.5741463461        6.3995775530        3.0903802974
  H         1.7063315714        7.5169269266        3.5551750580
  O         4.4332061772        5.6071334140        6.2885657176
  H         5.2170949885        6.0203048516        6.7225741692
  H         4.4503882518        6.1347181930        5.4636023060
  O         2.2078621965        6.6217244909        7.8894428816
  H         2.9801666042        6.3989160458        7.3266271894
  H         2.1266681435        7.5933165676        7.6115194724
  O         4.6251667935        4.6491312489        9.6957271384
  H         5.3156968661        5.3760075130        9.8695721103
  H         3.8104318143        5.1962435770        9.8713306260
  O         2.9808764051        6.3782656268       11.5945135783
  H         3.5155368914        5.9477794044       12.3202503115
  H         2.9351253900        7.2814508717       11.9687850768
  O         4.5821727288        4.9544450593       13.8048081847
  H         5.4527082806        5.3981778172       13.9331323559
  H         4.2270841650        5.2117303934       14.6953525525
      96
 i =        6, time =        3.000, E =      -373.6566065866
  O        -0.1498740147        2.6092423726       -0.2501859359
  H         0.5832807443        2.2616008573       -0.8384531083
  H        -0.1803126555        3.5227315793       -0.6328946771
  O         2.0535027910        1.0935625583        2.5892140138
  H         2.8185841845        1.5760717130        3.0456165299
  H         1.3086028687        1.6457834034        2.9558948532
  O        -0.5286161160        2.6257306043        4.2723932871
  H         0.2709176810        2.1949436847        3.8865683785
  H        -0.4749608890        3.5260653908        3.7862249745
  O         2.1385515862        1.2111931665        6.1244449009
  H         2.7899566901        1.9663861882        6.1915582524
  H         1.3678958196        1.7034847828        6.4896224299
  O         0.1158300737        2.6994142591        7.6318503993
  H         0.6040037598        3.0301354831        8.4367068049
  H        -0.0075873995        3.6163071034        7.1863461074
  O         2.3958865313        1.5975547552        9.8219655361
  H         3.2008345591        1.7816920998       10.3654858377
  H         2.5208608718        2.2499561873        9.0928168288
  O         0.1174236546        2.2280268328       11.5629150465
  H         0.8811677178        1.8279316122       11.1187385618
  H         0.3101301704        3.1604208734       11.3256653924
  O         2.6797032157        1.0227804132       13.3545439915
  H         3.3899046786        1.4263655248       13.9621074204
  H         1.8674695900        1.5934158202       13.6108915476
  O        -2.2151987009        6.4096679349        0.1920188033
  H        -1.4051671702        6.0245497115       -0.2492915493
  H        -2.1934560526        7.2538593256       -0.2763597556
  O        -0.1919981253        4.9030004203        2.5033389307
  H         0.4497130402        5.4653294888        2.9836921626
  H        -1.0022377599        5.4817465799        2.6780532181
  O        -2.7685543118        6.4803514516        4.1521186550
  H        -1.9194157513        6.2723102217        3.7227623560
  H        -2.7345059230        7.4678100503        3.9562149400
  O         0.1171065281        5.2680624089        6.2848388651
  H         0.8577603974        5.7714303116        6.7825896099
  H        -0.6881433804        5.7120035873        6.6898621443
  O        -2.4324737955        6.7755093357        8.0693015142
  H        -1.6145890753        6.5489616445        7.5791638635
  H        -2.4102937158        7.7325543406        7.8307873289
  O         0.5371146650        4.8526787972       10.0055734404
  H         1.3780457396        5.3016333950       10.2674328623
  H        -0.0826673391        5.2569574912       10.6481760767
  O        -2.2542002528        6.3452212524       11.0705441510
  H        -1.5141664458        6.0376684406       10.4746727413
  H        -2.3955289146        7.2208910982       10.6916569227
  O         0.2353709787        5.2140604309       12.8970727111
  H         0.9640262523        5.7008278431       13.3537628239
  H        -0.4973027081        5.8502235882       13.1533534191
  O         4.6653871873        2.2335729404        0.3797630060
  H         5.4827755333        1.7331938029        0.0585422308
  H         4.8391296361        3.0697549547       -0.1324711317
  O         6.5654132898        1.3249735888        2.4662622456
  H         7.2185024682        1.8203131126        3.0892784491
  H         5.7578245763        1.8251745192        2.7657685739
  O         3.9291355451        2.7935178005        4.1170377283
  H         4.8096405040        2.3486089066        4.0287141480
  H         4.1303030612        3.5600715732        3.5081180824
  O         6.2619301659        1.3602084029        6.1032090415
  H         7.0381161234        1.9702119094        6.1453150366
  H         5.6663330292        1.8819079041        6.6922390346
  O         4.2932272658        2.7780236565        7.9508192124
  H         4.8697230306        2.6178992750        8.7543655618
  H         4.4783784086        3.7408915768        7.8114968248
  O         6.9974912233        1.6437014206        9.4678418211
  H         7.6422985518        1.7389762675       10.1719321125
  H         7.5037518071        2.1520565748        8.8110580890
  O         4.8726827803        2.4779053881       11.1720017982
  H         5.4740981875        2.6154001833       10.3897525992
  H         4.7127076674        3.4384488796       11.3484294243
  O         6.6613631093        1.1153389229       13.2007149755
  H         7.4346667668        1.7504852598       13.3837849277
  H         6.2392790574        1.5537393293       12.4307055915
  O         2.0371268522        6.4210422751        0.4730961280
  H         2.9212003709        6.3478155073        0.0489786331
  H         1.9390362297        7.3924533242        0.3161194826
  O         4.4684148251        5.0513278521        2.2071540891
  H         5.0778781862        5.6162831675        2.7527050866
  H         3.6430455656        5.6056313958        2.3200110045
  O         1.9257808790        6.5765026081        3.8129629556
  H         2.5769782603        6.4184783060        3.0839049681
  H         1.7027733751        7.5235442485        3.5731367368
  O         4.4287624861        5.6080583014        6.2865862411
  H         5.2179843654        6.0055967753        6.7237090733
  H         4.4456696067        6.1463745066        5.4685293040
  O         2.2052354083        6.6215776130        7.8884126915
  H         2.9813655814        6.4024596491        7.3325814361
  H         2.1269947199        7.5990128779        7.6128725459
  O         4.6274426379        4.6479129159        9.6973468197
  H         5.3227406593        5.3796926403        9.8590025645
  H         3.8129903122        5.2010160232        9.8688058784
  O         2.9796579877        6.3779916028       11.5921644345
  H         3.5173228872        5.9524008277       12.3195934949
  H         2.9319044741        7.2844572911       11.9545028702
  O         4.5814132990        4.9559714336       13.8029573986
  H         5.4489858188        5.4023702176       13.9422897287
  H         4.2262876800        5.2133665475       14.6936626567
      96
 i =        8, time =        4.000, E =      -373.6576122831
  O        -0.1460361724        2.6072256203       -0.2507297991
  H         0.5845029918        2.2592365676       -0.8404072564
  H        -0.1832937070        3.5173534747       -0.6412227286
  O         2.0586100264        1.0907211137        2.5911635705
  H         2.8259810451        1.5665716549        3.0463751438
  H         1.3182985117        1.6387109325        2.9701210009
  O        -0.5288058010        2.6252251900        4.2746656039
  H         0.2599755479        2.1864974388        3.8752353261
  H        -0.4826785259        3.5190867020        3.7823924819
  O         2.1387704459        1.2161947693        6.1230873270
  H         2.7846453565        1.9750790459        6.1860065538
  H         1.3690252317        1.7028133808        6.5037262171
  O         0.1160178592        2.7012665618        7.6293159953
  H         0.5960607585        3.0273698821        8.4407299808
  H        -0.0074142184        3.6211337293        7.1938018232
  O         2.4000414155        1.5985248910        9.8228939074
  H         3.2011210445        1.7746740685       10.3716273311
  H         2.5234143689        2.2559957708        9.1011136437
  O         0.1182439421        2.2282496230       11.5631079736
  H         0.8857006046        1.8301903748       11.1185736844
  H         0.3160457806        3.1664294764       11.3436439731
  O         2.6768380682        1.0233443814       13.3540532435
  H         3.3884096517        1.4293815181       13.9529727528
  H         1.8655782758        1.5834037012       13.6132626106
  O        -2.2171102437        6.4106205381        0.1911088468
  H        -1.3936607932        6.0321317594       -0.2343078440
  H        -2.1910527398        7.2593389612       -0.2787263376
  O        -0.1920516653        4.9035110080        2.5035803273
  H         0.4426667699        5.4683578113        2.9936514291
  H        -1.0054925377        5.4754916987        2.6726313142
  O        -2.7689461748        6.4841094788        4.1545241081
  H        -1.9162025923        6.2712404187        3.7274622378
  H        -2.7191295366        7.4735584194        3.9689202755
  O         0.1183442112        5.2663951428        6.2837349565
  H         0.8578013445        5.7737532410        6.7719375511
  H        -0.6866375152        5.7025840740        6.6919630061
  O        -2.4364445014        6.7776200413        8.0684842315
  H        -1.6108785716        6.5572342976        7.5816787163
  H        -2.4138871133        7.7372805550        7.8333598187
  O         0.5341322683        4.8522813551       10.0052474547
  H         1.3752964540        5.3038877684       10.2589764544
  H        -0.0864258444        5.2534407824       10.6518559415
  O        -2.2551532072        6.3433980822       11.0701673417
  H        -1.5154805374        6.0365618129       10.4755676005
  H        -2.4091622750        7.2162920250       10.6837910086
  O         0.2344373083        5.2133889809       12.8951547933
  H         0.9731179215        5.7030719089       13.3366061955
  H        -0.4889368094        5.8580909437       13.1511877796
  O         4.6625500875        2.2329182741        0.3788612651
  H         5.4811969717        1.7328282371        0.0641767767
  H         4.8437154762        3.0685983625       -0.1317536910
  O         6.5686217881        1.3235621140        2.4699164602
  H         7.2150272405        1.8301464865        3.0884678351
  H         5.7600421378        1.8236801402        2.7655287327
  O         3.9257978295        2.7931880769        4.1132559357
  H         4.8032572345        2.3385673681        4.0273504811
  H         4.1401467604        3.5572037915        3.5046718984
  O         6.2664470312        1.3589915911        6.1065591125
  H         7.0410040576        1.9703421260        6.1547994395
  H         5.6635116106        1.8815007211        6.6902439326
  O         4.2923980041        2.7794872427        7.9534704185
  H         4.8722937839        2.6145998255        8.7512958372
  H         4.4781119877        3.7410860236        7.8130016107
  O         6.9990515116        1.6417630842        9.4694961947
  H         7.6446936831        1.7451720956       10.1801065512
  H         7.5079886689        2.1508907038        8.8076080329
  O         4.8713133896        2.4798693031       11.1750337891
  H         5.4855404018        2.6192774827       10.4019459915
  H         4.7151664750        3.4419929669       11.3531392331
  O         6.6643642793        1.1158691159       13.1962299447
  H         7.4272053639        1.7544069514       13.3956577844
  H         6.2434781284        1.5540069659       12.4261581730